
     Program PWSCF v.6.4.1 starts on 12Jan2021 at 18:31:32 

     This program is part of the open-source Quantum ESPRESSO suite
     for quantum simulation of materials; please cite
         "P. Giannozzi et al., J. Phys.:Condens. Matter 21 395502 (2009);
         "P. Giannozzi et al., J. Phys.:Condens. Matter 29 465901 (2017);
          URL http://www.quantum-espresso.org", 
     in publications or presentations arising from this work. More details at
     http://www.quantum-espresso.org/quote

     Parallel version (MPI & OpenMP), running on      48 processor cores
     Number of MPI processes:                48
     Threads/MPI process:                     1

     MPI processes distributed on     1 nodes
     R & G space division:  proc/nbgrp/npool/nimage =      48
     Waiting for input...
     Reading input from standard input

     Current dimensions of program PWSCF are:
     Max number of different atomic species (ntypx) = 10
     Max number of k-points (npk) =  40000
     Max angular momentum in pseudopotentials (lmaxx) =  3
               file Cs.pbe-spn-kjpaw_psl.1.0.0.UPF: wavefunction(s)  5S 6S renormalized
               file Sn.pbe-dn-kjpaw_psl.1.0.0.UPF: wavefunction(s)  5S 5P 4D renormalized
               file I.pbe-n-kjpaw_psl.1.0.0.UPF: wavefunction(s)  5S renormalized

     Subspace diagonalization in iterative solution of the eigenvalue problem:
     one sub-group per band group will be used
     scalapack distributed-memory algorithm (size of sub-group:  4*  4 procs)

     Message from routine setup:
     DEPRECATED: symmetry with ibrav=0, use correct ibrav instead
 
     Parallelization info
     --------------------
     sticks:   dense  smooth     PW     G-vecs:    dense   smooth      PW
     Min         122     122     33                17914    17914    2507
     Max         123     123     34                17929    17929    2515
     Sum        5903    5903   1597               860245   860245  120505
 

     Title: 
     CsSnI3                                                                     


     bravais-lattice index     =            0
     lattice parameter (alat)  =       9.1317  a.u.
     unit-cell volume          =    6370.5385 (a.u.)^3
     number of atoms/cell      =           20
     number of atomic types    =            3
     number of electrons       =       176.00
     number of Kohn-Sham states=           88
     kinetic-energy cutoff     =     100.0000  Ry
     charge density cutoff     =     400.0000  Ry
     convergence threshold     =      1.0E-06
     mixing beta               =       0.5000
     number of iterations used =            8  plain     mixing
     Exchange-correlation      = SLA PW PBX PBC ( 1  4  3  4 0 0)
     nstep                     =           50


     celldm(1)=   9.131705  celldm(2)=   0.000000  celldm(3)=   0.000000
     celldm(4)=   0.000000  celldm(5)=   0.000000  celldm(6)=   0.000000

     crystal axes: (cart. coord. in units of alat)
               a(1) = (   1.000000   0.000000   0.000000 )  
               a(2) = (   0.000000   2.227728   0.000000 )  
               a(3) = (   0.000000   0.000000   3.755420 )  

     reciprocal axes: (cart. coord. in units 2 pi/alat)
               b(1) = (  1.000000  0.000000  0.000000 )  
               b(2) = (  0.000000  0.448888  0.000000 )  
               b(3) = (  0.000000  0.000000  0.266282 )  


     PseudoPot. # 1 for Cs read from file:
     ../../../pseudo/Cs.pbe-spn-kjpaw_psl.1.0.0.UPF
     MD5 check sum: b82c75cc2e1f4ff73b6412cffeb9c584
     Pseudo is Projector augmented-wave + core cor, Zval =  9.0
     Generated using "atomic" code by A. Dal Corso v.6.4.1
     Shape of augmentation charge: PSQ
     Using radial grid of 1251 points,  9 beta functions with: 
                l(1) =   0
                l(2) =   0
                l(3) =   0
                l(4) =   1
                l(5) =   1
                l(6) =   2
                l(7) =   2
                l(8) =   3
                l(9) =   3
     Q(r) pseudized with 0 coefficients 


     PseudoPot. # 2 for Sn read from file:
     ../../../pseudo/Sn.pbe-dn-kjpaw_psl.1.0.0.UPF
     MD5 check sum: 67f11dec737d427557dc41ea34975807
     Pseudo is Projector augmented-wave + core cor, Zval = 14.0
     Generated using "atomic" code by A. Dal Corso v.6.3
     Shape of augmentation charge: PSQ
     Using radial grid of 1243 points,  6 beta functions with: 
                l(1) =   0
                l(2) =   0
                l(3) =   1
                l(4) =   1
                l(5) =   2
                l(6) =   2
     Q(r) pseudized with 0 coefficients 


     PseudoPot. # 3 for I  read from file:
     ../../../pseudo/I.pbe-n-kjpaw_psl.1.0.0.UPF
     MD5 check sum: cd3d296c3308a581e1559a0c8a554cb5
     Pseudo is Projector augmented-wave + core cor, Zval =  7.0
     Generated using "atomic" code by A. Dal Corso v.6.3
     Shape of augmentation charge: PSQ
     Using radial grid of 1247 points,  6 beta functions with: 
                l(1) =   0
                l(2) =   0
                l(3) =   1
                l(4) =   1
                l(5) =   2
                l(6) =   2
     Q(r) pseudized with 0 coefficients 


     atomic species   valence    mass     pseudopotential
        Cs             9.00   132.90000     Cs( 1.00)
        Sn            14.00   118.70000     Sn( 1.00)
        I              7.00   126.90000     I ( 1.00)

      2 Sym. Ops. (no inversion) found ( 1 have fractional translation)


                                    s                        frac. trans.

      isym =  1     identity                                     

 cryst.   s( 1) = (     1          0          0      )
                  (     0          1          0      )
                  (     0          0          1      )

 cart.    s( 1) = (  1.0000000  0.0000000  0.0000000 )
                  (  0.0000000  1.0000000  0.0000000 )
                  (  0.0000000  0.0000000  1.0000000 )


      isym =  2     inv. 180 deg rotation - cart. axis [1,0,0]   

 cryst.   s( 2) = (    -1          0          0      )    f =(  0.5000000 )
                  (     0          1          0      )       (  0.0000000 )
                  (     0          0          1      )       (  0.0000000 )

 cart.    s( 2) = ( -1.0000000  0.0000000  0.0000000 )    f =(  0.5000000 )
                  (  0.0000000  1.0000000  0.0000000 )       (  0.0000000 )
                  (  0.0000000  0.0000000  1.0000000 )       (  0.0000000 )


   Cartesian axes

     site n.     atom                  positions (alat units)
         1           Cs  tau(   1) = (   0.2500000   0.0834770   0.6701820  )
         2           Cs  tau(   2) = (   0.7500000   0.9165230   0.3298180  )
         3           Cs  tau(   3) = (   0.2500000   0.5834770   0.8298180  )
         4           Cs  tau(   4) = (   0.7500000   0.4165230   0.1701820  )
         5           Sn  tau(   5) = (   0.2500000   0.3418600   0.4389780  )
         6           Sn  tau(   6) = (   0.7500000   0.6581400   0.5610220  )
         7           Sn  tau(   7) = (   0.2500000   0.8418600   0.0610220  )
         8           Sn  tau(   8) = (   0.7500000   0.1581400   0.9389780  )
         9           I   tau(   9) = (   0.7500000   0.0261000   0.1119070  )
        10           I   tau(  10) = (   0.2500000   0.9739000   0.8880930  )
        11           I   tau(  11) = (   0.7500000   0.5261000   0.3880930  )
        12           I   tau(  12) = (   0.2500000   0.4739000   0.6119070  )
        13           I   tau(  13) = (   0.7500000   0.2931740   0.7918740  )
        14           I   tau(  14) = (   0.2500000   0.7068260   0.2081260  )
        15           I   tau(  15) = (   0.7500000   0.7931740   0.7081260  )
        16           I   tau(  16) = (   0.2500000   0.2068260   0.2918740  )
        17           I   tau(  17) = (   0.7500000   0.1684960   0.4988740  )
        18           I   tau(  18) = (   0.2500000   0.8315040   0.5011260  )
        19           I   tau(  19) = (   0.7500000   0.6684960   0.0011260  )
        20           I   tau(  20) = (   0.2500000   0.3315040   0.9988740  )

   Crystallographic axes

     site n.     atom                  positions (cryst. coord.)
         1           Cs  tau(   1) = (  0.2500000  0.0374718  0.1784573  )
         2           Cs  tau(   2) = (  0.7500000  0.4114161  0.0878245  )
         3           Cs  tau(   3) = (  0.2500000  0.2619158  0.2209654  )
         4           Cs  tau(   4) = (  0.7500000  0.1869721  0.0453164  )
         5           Sn  tau(   5) = (  0.2500000  0.1534568  0.1168919  )
         6           Sn  tau(   6) = (  0.7500000  0.2954311  0.1493900  )
         7           Sn  tau(   7) = (  0.2500000  0.3779008  0.0162490  )
         8           Sn  tau(   8) = (  0.7500000  0.0709871  0.2500328  )
         9           I   tau(   9) = (  0.7500000  0.0117160  0.0297988  )
        10           I   tau(  10) = (  0.2500000  0.4371719  0.2364830  )
        11           I   tau(  11) = (  0.7500000  0.2361599  0.1033421  )
        12           I   tau(  12) = (  0.2500000  0.2127280  0.1629397  )
        13           I   tau(  13) = (  0.7500000  0.1316023  0.2108617  )
        14           I   tau(  14) = (  0.2500000  0.3172856  0.0554202  )
        15           I   tau(  15) = (  0.7500000  0.3560462  0.1885611  )
        16           I   tau(  16) = (  0.2500000  0.0928417  0.0777207  )
        17           I   tau(  17) = (  0.7500000  0.0756358  0.1328411  )
        18           I   tau(  18) = (  0.2500000  0.3732521  0.1334407  )
        19           I   tau(  19) = (  0.7500000  0.3000798  0.0002998  )
        20           I   tau(  20) = (  0.2500000  0.1488081  0.2659820  )

     number of k points=     8
                       cart. coord. in units 2pi/alat
        k(    1) = (   0.0000000   0.0000000   0.0000000), wk =   0.2500000
        k(    2) = (   0.0000000   0.0000000  -0.1331409), wk =   0.2500000
        k(    3) = (   0.0000000  -0.2244440   0.0000000), wk =   0.2500000
        k(    4) = (   0.0000000  -0.2244440  -0.1331409), wk =   0.2500000
        k(    5) = (  -0.5000000   0.0000000   0.0000000), wk =   0.2500000
        k(    6) = (  -0.5000000   0.0000000  -0.1331409), wk =   0.2500000
        k(    7) = (  -0.5000000  -0.2244440   0.0000000), wk =   0.2500000
        k(    8) = (  -0.5000000  -0.2244440  -0.1331409), wk =   0.2500000

                       cryst. coord.
        k(    1) = (   0.0000000   0.0000000   0.0000000), wk =   0.2500000
        k(    2) = (   0.0000000   0.0000000  -0.5000000), wk =   0.2500000
        k(    3) = (   0.0000000  -0.5000000   0.0000000), wk =   0.2500000
        k(    4) = (   0.0000000  -0.5000000  -0.5000000), wk =   0.2500000
        k(    5) = (  -0.5000000   0.0000000   0.0000000), wk =   0.2500000
        k(    6) = (  -0.5000000   0.0000000  -0.5000000), wk =   0.2500000
        k(    7) = (  -0.5000000  -0.5000000   0.0000000), wk =   0.2500000
        k(    8) = (  -0.5000000  -0.5000000  -0.5000000), wk =   0.2500000

     Dense  grid:   860245 G-vectors     FFT dimensions: (  60, 135, 225)

     Dynamical RAM for                 wfc:       3.01 MB

     Dynamical RAM for     wfc (w. buffer):      27.08 MB

     Dynamical RAM for           str. fact:       0.82 MB

     Dynamical RAM for           local pot:       0.00 MB

     Dynamical RAM for          nlocal pot:      14.36 MB

     Dynamical RAM for                qrad:      41.97 MB

     Dynamical RAM for          rho,v,vnew:       1.75 MB

     Dynamical RAM for               rhoin:       0.58 MB

     Dynamical RAM for            rho*nmix:       4.38 MB

     Dynamical RAM for           G-vectors:       1.16 MB

     Dynamical RAM for          h,s,v(r/c):       0.02 MB

     Dynamical RAM for          <psi|beta>:       0.56 MB

     Dynamical RAM for      wfcinit/wfcrot:       7.36 MB

     Dynamical RAM for           addusdens:     164.11 MB

     Dynamical RAM for          addusforce:     177.08 MB

     Dynamical RAM for         addusstress:     168.21 MB

     Estimated static dynamical RAM per process >      94.74 MB

     Estimated max dynamical RAM per process >     271.82 MB

     Estimated total dynamical RAM >      12.74 GB

     Initial potential from superposition of free atoms

     starting charge  175.83511, renormalised to  176.00000

     negative rho (up, down):  1.457E-03 0.000E+00
     Starting wfcs are  104 randomized atomic wfcs
     Checking if some PAW data can be deallocated... 
       PAW data deallocated on   36 nodes for type:  1
       PAW data deallocated on   36 nodes for type:  2
       PAW data deallocated on   24 nodes for type:  3

     total cpu time spent up to now is        9.7 secs

     Self-consistent Calculation

     iteration #  1     ecut=   100.00 Ry     beta= 0.50
     CG style diagonalization
     c_bands:  2 eigenvalues not converged
     c_bands:  1 eigenvalues not converged
     c_bands:  2 eigenvalues not converged
     c_bands:  1 eigenvalues not converged
     ethr =  1.00E-02,  avg # of iterations =  7.5

     negative rho (up, down):  9.427E+00 0.000E+00

     total cpu time spent up to now is      117.0 secs

     total energy              =   -7779.66157830 Ry
     Harris-Foulkes estimate   =   -7800.60449654 Ry
     estimated scf accuracy    <     301.30179338 Ry

     iteration #  2     ecut=   100.00 Ry     beta= 0.50
     CG style diagonalization
     c_bands:  3 eigenvalues not converged
     c_bands:  2 eigenvalues not converged
     c_bands:  1 eigenvalues not converged
     c_bands:  3 eigenvalues not converged
     c_bands:  5 eigenvalues not converged
     c_bands:  4 eigenvalues not converged
     c_bands:  2 eigenvalues not converged
     ethr =  1.00E-02,  avg # of iterations =  7.6

     negative rho (up, down):  9.873E+00 0.000E+00

     total cpu time spent up to now is      212.5 secs

     total energy              =   -7816.22879400 Ry
     Harris-Foulkes estimate   =   -7820.66094628 Ry
     estimated scf accuracy    <    1537.78604829 Ry

     iteration #  3     ecut=   100.00 Ry     beta= 0.50
     CG style diagonalization
     c_bands:  1 eigenvalues not converged
     c_bands:  1 eigenvalues not converged
     c_bands:  1 eigenvalues not converged
     ethr =  1.00E-02,  avg # of iterations =  3.7

     negative rho (up, down):  4.444E+00 0.000E+00

     total cpu time spent up to now is      254.9 secs

     total energy              =   -7798.71883434 Ry
     Harris-Foulkes estimate   =   -7821.57201514 Ry
     estimated scf accuracy    <    8033.73185886 Ry

     iteration #  4     ecut=   100.00 Ry     beta= 0.50
     CG style diagonalization
     ethr =  1.00E-02,  avg # of iterations =  3.3

     negative rho (up, down):  3.458E+00 0.000E+00

     total cpu time spent up to now is      290.2 secs

     total energy              =   -7778.05027220 Ry
     Harris-Foulkes estimate   =   -7819.33712076 Ry
     estimated scf accuracy    <     123.50962768 Ry

     iteration #  5     ecut=   100.00 Ry     beta= 0.50
     CG style diagonalization
     ethr =  1.00E-02,  avg # of iterations =  4.0

     negative rho (up, down):  3.897E+00 0.000E+00

     total cpu time spent up to now is      335.9 secs

     total energy              =   -7786.13020981 Ry
     Harris-Foulkes estimate   =   -7789.96934658 Ry
     estimated scf accuracy    <      18.69595725 Ry

     iteration #  6     ecut=   100.00 Ry     beta= 0.50
     CG style diagonalization
     c_bands:  4 eigenvalues not converged
     c_bands:  2 eigenvalues not converged
     c_bands:  2 eigenvalues not converged
     c_bands:  5 eigenvalues not converged
     c_bands:  2 eigenvalues not converged
     c_bands:  4 eigenvalues not converged
     c_bands:  2 eigenvalues not converged
     c_bands:  3 eigenvalues not converged
     ethr =  1.00E-02,  avg # of iterations =  7.7

     negative rho (up, down):  3.624E+00 0.000E+00

     total cpu time spent up to now is      433.3 secs

     total energy              =   -7808.01636761 Ry
     Harris-Foulkes estimate   =   -7816.42812813 Ry
     estimated scf accuracy    <   14092.56647653 Ry

     iteration #  7     ecut=   100.00 Ry     beta= 0.50
     CG style diagonalization
     ethr =  1.00E-02,  avg # of iterations =  3.7

     negative rho (up, down):  2.890E+00 0.000E+00

     total cpu time spent up to now is      474.0 secs

     total energy              =   -7795.35926663 Ry
     Harris-Foulkes estimate   =   -7813.89953586 Ry
     estimated scf accuracy    <     149.52208510 Ry

     iteration #  8     ecut=   100.00 Ry     beta= 0.50
     CG style diagonalization
     ethr =  1.00E-02,  avg # of iterations =  4.5

     negative rho (up, down):  2.837E+00 0.000E+00

     total cpu time spent up to now is      527.3 secs

     total energy              =   -7802.46391435 Ry
     Harris-Foulkes estimate   =   -7803.21719031 Ry
     estimated scf accuracy    <      55.77765775 Ry

     iteration #  9     ecut=   100.00 Ry     beta= 0.50
     CG style diagonalization
     ethr =  1.00E-02,  avg # of iterations =  3.2

     negative rho (up, down):  1.832E+00 0.000E+00

     total cpu time spent up to now is      561.7 secs

     total energy              =   -7800.94925282 Ry
     Harris-Foulkes estimate   =   -7803.57915316 Ry
     estimated scf accuracy    <      43.81977167 Ry

     iteration # 10     ecut=   100.00 Ry     beta= 0.50
     CG style diagonalization
     ethr =  1.00E-02,  avg # of iterations =  3.1

     negative rho (up, down):  4.505E+00 0.000E+00

     total cpu time spent up to now is      593.8 secs

     total energy              =   -7808.00100303 Ry
     Harris-Foulkes estimate   =   -7801.79068790 Ry
     estimated scf accuracy    <      50.93711661 Ry

     iteration # 11     ecut=   100.00 Ry     beta= 0.50
     CG style diagonalization
     ethr =  1.00E-02,  avg # of iterations =  3.5

     negative rho (up, down):  3.166E+00 0.000E+00

     total cpu time spent up to now is      631.6 secs

     total energy              =   -7807.96922493 Ry
     Harris-Foulkes estimate   =   -7809.91300294 Ry
     estimated scf accuracy    <      80.97890668 Ry

     iteration # 12     ecut=   100.00 Ry     beta= 0.50
     CG style diagonalization
     c_bands:  1 eigenvalues not converged
     c_bands:  1 eigenvalues not converged
     c_bands:  1 eigenvalues not converged
     c_bands:  1 eigenvalues not converged
     ethr =  1.00E-02,  avg # of iterations =  3.2

     negative rho (up, down):  1.801E+00 0.000E+00

     total cpu time spent up to now is      665.9 secs

     total energy              =   -7793.45516443 Ry
     Harris-Foulkes estimate   =   -7812.44852729 Ry
     estimated scf accuracy    <   15598.88820472 Ry

     iteration # 13     ecut=   100.00 Ry     beta= 0.50
     CG style diagonalization
     ethr =  1.00E-02,  avg # of iterations =  3.5

     negative rho (up, down):  2.088E+00 0.000E+00

     total cpu time spent up to now is      705.0 secs

     total energy              =   -7800.11583263 Ry
     Harris-Foulkes estimate   =   -7800.63105840 Ry
     estimated scf accuracy    <     144.48110276 Ry

     iteration # 14     ecut=   100.00 Ry     beta= 0.50
     CG style diagonalization
     ethr =  1.00E-02,  avg # of iterations =  4.6

     negative rho (up, down):  2.399E+00 0.000E+00

     total cpu time spent up to now is      758.5 secs

     total energy              =   -7804.47597650 Ry
     Harris-Foulkes estimate   =   -7809.79516152 Ry
     estimated scf accuracy    <     465.93107077 Ry

     iteration # 15     ecut=   100.00 Ry     beta= 0.50
     CG style diagonalization
     ethr =  1.00E-02,  avg # of iterations =  3.4

     negative rho (up, down):  1.169E+00 0.000E+00

     total cpu time spent up to now is      795.7 secs

     total energy              =   -7815.51539647 Ry
     Harris-Foulkes estimate   =   -7806.41766467 Ry
     estimated scf accuracy    <     463.85619058 Ry

     iteration # 16     ecut=   100.00 Ry     beta= 0.50
     CG style diagonalization
     ethr =  1.00E-02,  avg # of iterations =  3.2

     negative rho (up, down):  1.387E+00 0.000E+00

     total cpu time spent up to now is      830.2 secs

     total energy              =   -7809.28711757 Ry
     Harris-Foulkes estimate   =   -7816.77281197 Ry
     estimated scf accuracy    <     427.56015774 Ry

     iteration # 17     ecut=   100.00 Ry     beta= 0.50
     CG style diagonalization
     ethr =  1.00E-02,  avg # of iterations =  3.1

     negative rho (up, down):  1.315E+00 0.000E+00

     total cpu time spent up to now is      864.8 secs

     total energy              =   -7804.81029909 Ry
     Harris-Foulkes estimate   =   -7810.21361419 Ry
     estimated scf accuracy    <     466.66994106 Ry

     iteration # 18     ecut=   100.00 Ry     beta= 0.50
     CG style diagonalization
     ethr =  1.00E-02,  avg # of iterations =  3.4

     negative rho (up, down):  1.486E+00 0.000E+00

     total cpu time spent up to now is      902.0 secs

     total energy              =   -7797.46326808 Ry
     Harris-Foulkes estimate   =   -7806.77454363 Ry
     estimated scf accuracy    <     253.27107820 Ry

     iteration # 19     ecut=   100.00 Ry     beta= 0.50
     CG style diagonalization
     ethr =  1.00E-02,  avg # of iterations =  4.1

     negative rho (up, down):  3.727E+00 0.000E+00

     total cpu time spent up to now is      949.3 secs

     total energy              =   -7802.55124175 Ry
     Harris-Foulkes estimate   =   -7803.62436498 Ry
     estimated scf accuracy    <     259.57357341 Ry

     iteration # 20     ecut=   100.00 Ry     beta= 0.50
     CG style diagonalization
     ethr =  1.00E-02,  avg # of iterations =  4.4

     negative rho (up, down):  2.145E+00 0.000E+00

     total cpu time spent up to now is     1000.2 secs

     total energy              =   -7805.21198850 Ry
     Harris-Foulkes estimate   =   -7808.94389167 Ry
     estimated scf accuracy    <     173.53901030 Ry

     iteration # 21     ecut=   100.00 Ry     beta= 0.50
     CG style diagonalization
     ethr =  1.00E-02,  avg # of iterations =  5.1

     negative rho (up, down):  4.636E+00 0.000E+00

     total cpu time spent up to now is     1060.7 secs

     total energy              =   -7815.17378898 Ry
     Harris-Foulkes estimate   =   -7815.33834351 Ry
     estimated scf accuracy    <     398.74395958 Ry

     iteration # 22     ecut=   100.00 Ry     beta= 0.50
     CG style diagonalization
     c_bands:  2 eigenvalues not converged
     c_bands:  4 eigenvalues not converged
     c_bands:  2 eigenvalues not converged
     c_bands:  2 eigenvalues not converged
     c_bands:  2 eigenvalues not converged
     c_bands:  2 eigenvalues not converged
     ethr =  1.00E-02,  avg # of iterations =  7.7

     negative rho (up, down):  3.716E+00 0.000E+00

     total cpu time spent up to now is     1160.4 secs

     total energy              =   -7699.95591983 Ry
     Harris-Foulkes estimate   =   -7861.62407293 Ry
     estimated scf accuracy    <     858.84604811 Ry

     iteration # 23     ecut=   100.00 Ry     beta= 0.50
     CG style diagonalization
     c_bands:  3 eigenvalues not converged
     c_bands:  3 eigenvalues not converged
     c_bands:  2 eigenvalues not converged
     c_bands:  5 eigenvalues not converged
     c_bands:  1 eigenvalues not converged
     c_bands:  5 eigenvalues not converged
     ethr =  1.00E-02,  avg # of iterations = 11.2

     negative rho (up, down):  1.614E+00 0.000E+00

     total cpu time spent up to now is     1299.5 secs

     total energy              =   -7793.97244263 Ry
     Harris-Foulkes estimate   =   -7796.96060550 Ry
     estimated scf accuracy    <   10894.20368047 Ry

     iteration # 24     ecut=   100.00 Ry     beta= 0.50
     CG style diagonalization
     ethr =  1.00E-02,  avg # of iterations =  5.1

     negative rho (up, down):  2.155E+00 0.000E+00

     total cpu time spent up to now is     1360.1 secs

     total energy              =   -7798.91903502 Ry
     Harris-Foulkes estimate   =   -7807.77104056 Ry
     estimated scf accuracy    <     266.40203829 Ry

     iteration # 25     ecut=   100.00 Ry     beta= 0.50
     CG style diagonalization
     c_bands:  1 eigenvalues not converged
     c_bands:  2 eigenvalues not converged
     c_bands:  2 eigenvalues not converged
     c_bands:  2 eigenvalues not converged
     c_bands:  1 eigenvalues not converged
     c_bands:  1 eigenvalues not converged
     c_bands:  2 eigenvalues not converged
     ethr =  1.00E-02,  avg # of iterations =  4.7

     negative rho (up, down):  2.899E+00 0.000E+00

     total cpu time spent up to now is     1416.0 secs

     total energy              =   -7805.32402527 Ry
     Harris-Foulkes estimate   =   -7810.19393177 Ry
     estimated scf accuracy    <   20109.83650299 Ry

     iteration # 26     ecut=   100.00 Ry     beta= 0.50
     CG style diagonalization
     c_bands:  1 eigenvalues not converged
     ethr =  1.00E-02,  avg # of iterations =  4.6

     negative rho (up, down):  2.685E+00 0.000E+00

     total cpu time spent up to now is     1471.2 secs

     total energy              =   -7801.48125333 Ry
     Harris-Foulkes estimate   =   -7813.16472850 Ry
     estimated scf accuracy    <   31364.97610482 Ry

     iteration # 27     ecut=   100.00 Ry     beta= 0.50
     CG style diagonalization
     ethr =  1.00E-02,  avg # of iterations =  3.4

     negative rho (up, down):  3.507E+00 0.000E+00

     total cpu time spent up to now is     1508.7 secs

     total energy              =   -7805.01680906 Ry
     Harris-Foulkes estimate   =   -7804.83659680 Ry
     estimated scf accuracy    <    2882.60923185 Ry

     iteration # 28     ecut=   100.00 Ry     beta= 0.50
     CG style diagonalization
     ethr =  1.00E-02,  avg # of iterations =  3.5

     negative rho (up, down):  1.982E+00 0.000E+00

     total cpu time spent up to now is     1547.3 secs

     total energy              =   -7802.51297429 Ry
     Harris-Foulkes estimate   =   -7809.56744378 Ry
     estimated scf accuracy    <   27271.18138419 Ry

     iteration # 29     ecut=   100.00 Ry     beta= 0.50
     CG style diagonalization
     c_bands:  1 eigenvalues not converged
     c_bands:  1 eigenvalues not converged
     c_bands:  1 eigenvalues not converged
     c_bands:  2 eigenvalues not converged
     c_bands:  1 eigenvalues not converged
     ethr =  1.00E-02,  avg # of iterations =  5.4

     negative rho (up, down):  2.990E+00 0.000E+00

     total cpu time spent up to now is     1612.4 secs

     total energy              =   -7786.94098770 Ry
     Harris-Foulkes estimate   =   -7819.62149631 Ry
     estimated scf accuracy    <     400.25495728 Ry

     iteration # 30     ecut=   100.00 Ry     beta= 0.50
     CG style diagonalization
     c_bands:  4 eigenvalues not converged
     c_bands:  2 eigenvalues not converged
     c_bands:  2 eigenvalues not converged
     c_bands:  4 eigenvalues not converged
     c_bands:  2 eigenvalues not converged
     c_bands:  4 eigenvalues not converged
     c_bands:  3 eigenvalues not converged
     c_bands:  2 eigenvalues not converged
     ethr =  1.00E-02,  avg # of iterations =  7.8

     negative rho (up, down):  5.655E+00 0.000E+00

     total cpu time spent up to now is     1712.0 secs

     total energy              =   -7810.45483184 Ry
     Harris-Foulkes estimate   =   -7813.53409834 Ry
     estimated scf accuracy    <    3580.12152295 Ry

     iteration # 31     ecut=   100.00 Ry     beta= 0.50
     CG style diagonalization
     c_bands:  1 eigenvalues not converged
     c_bands:  1 eigenvalues not converged
     c_bands:  4 eigenvalues not converged
     c_bands:  2 eigenvalues not converged
     c_bands:  2 eigenvalues not converged
     c_bands:  1 eigenvalues not converged
     c_bands:  2 eigenvalues not converged
     c_bands:  2 eigenvalues not converged
     ethr =  1.00E-02,  avg # of iterations =  6.2

     negative rho (up, down):  1.150E+00 0.000E+00

     total cpu time spent up to now is     1789.6 secs

     total energy              =   -7783.27433270 Ry
     Harris-Foulkes estimate   =   -7829.30801689 Ry
     estimated scf accuracy    <   24097.02289638 Ry

     iteration # 32     ecut=   100.00 Ry     beta= 0.50
     CG style diagonalization
     c_bands:  2 eigenvalues not converged
     c_bands:  1 eigenvalues not converged
     c_bands:  2 eigenvalues not converged
     c_bands:  2 eigenvalues not converged
     ethr =  1.00E-02,  avg # of iterations =  5.9

     negative rho (up, down):  1.599E+00 0.000E+00

     total cpu time spent up to now is     1862.4 secs

     total energy              =   -7802.63786433 Ry
     Harris-Foulkes estimate   =   -7803.04898776 Ry
     estimated scf accuracy    <     594.64867109 Ry

     iteration # 33     ecut=   100.00 Ry     beta= 0.50
     CG style diagonalization
     ethr =  1.00E-02,  avg # of iterations =  4.0

     negative rho (up, down):  4.859E+00 0.000E+00

     total cpu time spent up to now is     1907.4 secs

     total energy              =   -7805.00454108 Ry
     Harris-Foulkes estimate   =   -7806.69872603 Ry
     estimated scf accuracy    <     897.72291011 Ry

     iteration # 34     ecut=   100.00 Ry     beta= 0.50
     CG style diagonalization
     ethr =  1.00E-02,  avg # of iterations =  3.8

     negative rho (up, down):  1.997E+00 0.000E+00

     total cpu time spent up to now is     1950.7 secs

     total energy              =   -7806.12457563 Ry
     Harris-Foulkes estimate   =   -7808.63219188 Ry
     estimated scf accuracy    <    1502.16532373 Ry

     iteration # 35     ecut=   100.00 Ry     beta= 0.50
     CG style diagonalization
     ethr =  1.00E-02,  avg # of iterations =  3.9

     negative rho (up, down):  3.209E+00 0.000E+00

     total cpu time spent up to now is     1995.0 secs

     total energy              =   -7809.55364856 Ry
     Harris-Foulkes estimate   =   -7810.28456256 Ry
     estimated scf accuracy    <    7768.74570401 Ry

     iteration # 36     ecut=   100.00 Ry     beta= 0.50
     CG style diagonalization
     ethr =  1.00E-02,  avg # of iterations =  3.2

     negative rho (up, down):  5.394E+00 0.000E+00

     total cpu time spent up to now is     2029.9 secs

     total energy              =   -7806.93757187 Ry
     Harris-Foulkes estimate   =   -7810.95468043 Ry
     estimated scf accuracy    <    7384.08538003 Ry

     iteration # 37     ecut=   100.00 Ry     beta= 0.50
     CG style diagonalization
     ethr =  1.00E-02,  avg # of iterations =  3.4

     negative rho (up, down):  2.667E+00 0.000E+00

     total cpu time spent up to now is     2068.2 secs

     total energy              =   -7806.87933538 Ry
     Harris-Foulkes estimate   =   -7809.13176840 Ry
     estimated scf accuracy    <   10469.44754911 Ry

     iteration # 38     ecut=   100.00 Ry     beta= 0.50
     CG style diagonalization
     ethr =  1.00E-02,  avg # of iterations =  3.4

     negative rho (up, down):  8.310E+00 0.000E+00

     total cpu time spent up to now is     2105.7 secs

     total energy              =   -7814.48359634 Ry
     Harris-Foulkes estimate   =   -7809.05629269 Ry
     estimated scf accuracy    <   10345.53699287 Ry

     iteration # 39     ecut=   100.00 Ry     beta= 0.50
     CG style diagonalization
     c_bands:  2 eigenvalues not converged
     c_bands:  1 eigenvalues not converged
     c_bands:  1 eigenvalues not converged
     c_bands:  2 eigenvalues not converged
     c_bands:  1 eigenvalues not converged
     c_bands:  1 eigenvalues not converged
     c_bands:  1 eigenvalues not converged
     ethr =  1.00E-02,  avg # of iterations =  4.8

     negative rho (up, down):  6.482E+00 0.000E+00

     total cpu time spent up to now is     2162.1 secs

     total energy              =   -7818.25680715 Ry
     Harris-Foulkes estimate   =   -7830.67660266 Ry
     estimated scf accuracy    <   45807.88404966 Ry

     iteration # 40     ecut=   100.00 Ry     beta= 0.50
     CG style diagonalization
     c_bands:  1 eigenvalues not converged
     ethr =  1.00E-02,  avg # of iterations =  3.8

     negative rho (up, down):  1.102E+01 0.000E+00

     total cpu time spent up to now is     2204.1 secs

     total energy              =   -7835.25259655 Ry
     Harris-Foulkes estimate   =   -7826.26509306 Ry
     estimated scf accuracy    <   83497.61261923 Ry

     iteration # 41     ecut=   100.00 Ry     beta= 0.50
     CG style diagonalization
     c_bands:  1 eigenvalues not converged
     c_bands:  1 eigenvalues not converged
     c_bands:  1 eigenvalues not converged
     c_bands:  1 eigenvalues not converged
     ethr =  1.00E-02,  avg # of iterations =  4.5

     negative rho (up, down):  1.654E+01 0.000E+00

     total cpu time spent up to now is     2255.8 secs

     total energy              =   -7838.23897532 Ry
     Harris-Foulkes estimate   =   -7850.73780501 Ry
     estimated scf accuracy    <   80236.84088123 Ry

     iteration # 42     ecut=   100.00 Ry     beta= 0.50
     CG style diagonalization
     c_bands:  2 eigenvalues not converged
     c_bands:  1 eigenvalues not converged
     c_bands:  1 eigenvalues not converged
     c_bands:  1 eigenvalues not converged
     c_bands:  1 eigenvalues not converged
     c_bands:  1 eigenvalues not converged
     c_bands:  1 eigenvalues not converged
     c_bands:  1 eigenvalues not converged
     ethr =  1.00E-02,  avg # of iterations =  5.5

     negative rho (up, down):  1.723E+01 0.000E+00

     total cpu time spent up to now is     2322.6 secs

     total energy              =   -7827.98724524 Ry
     Harris-Foulkes estimate   =   -7870.60910679 Ry
     estimated scf accuracy    <   82299.08627905 Ry

     iteration # 43     ecut=   100.00 Ry     beta= 0.50
     CG style diagonalization
     c_bands:  2 eigenvalues not converged
     c_bands:  1 eigenvalues not converged
     c_bands:  1 eigenvalues not converged
     c_bands:  1 eigenvalues not converged
     c_bands:  2 eigenvalues not converged
     c_bands:  2 eigenvalues not converged
     ethr =  1.00E-02,  avg # of iterations =  4.7

     negative rho (up, down):  8.658E+00 0.000E+00

     total cpu time spent up to now is     2377.8 secs

     total energy              =   -8057.49274948 Ry
     Harris-Foulkes estimate   =   -7908.45757556 Ry
     estimated scf accuracy    <  118485.53985741 Ry

     iteration # 44     ecut=   100.00 Ry     beta= 0.50
     CG style diagonalization
     c_bands:  5 eigenvalues not converged
     c_bands:  3 eigenvalues not converged
     c_bands:  4 eigenvalues not converged
     c_bands:  3 eigenvalues not converged
     c_bands:  1 eigenvalues not converged
     c_bands:  3 eigenvalues not converged
     c_bands:  1 eigenvalues not converged
     ethr =  1.00E-02,  avg # of iterations =  9.8

     negative rho (up, down):  7.325E+00 0.000E+00

     total cpu time spent up to now is     2498.9 secs

     total energy              =   -7838.33552704 Ry
     Harris-Foulkes estimate   =   -8254.81123772 Ry
     estimated scf accuracy    <  199800.28304042 Ry

     iteration # 45     ecut=   100.00 Ry     beta= 0.50
     CG style diagonalization
     c_bands:  1 eigenvalues not converged
     c_bands:  1 eigenvalues not converged
     c_bands:  4 eigenvalues not converged
     ethr =  1.00E-02,  avg # of iterations = 18.9

     negative rho (up, down):  7.115E+00 0.000E+00

     total cpu time spent up to now is     2734.5 secs

     total energy              =   -7843.80551745 Ry
     Harris-Foulkes estimate   =   -8078.97096603 Ry
     estimated scf accuracy    <   56805.48609403 Ry

     iteration # 46     ecut=   100.00 Ry     beta= 0.50
     CG style diagonalization
     c_bands:  3 eigenvalues not converged
     c_bands:  2 eigenvalues not converged
     c_bands:  2 eigenvalues not converged
     c_bands:  2 eigenvalues not converged
     c_bands:  2 eigenvalues not converged
     c_bands:  2 eigenvalues not converged
     c_bands:  2 eigenvalues not converged
     c_bands:  1 eigenvalues not converged
     ethr =  1.00E-02,  avg # of iterations =  5.5

     negative rho (up, down):  5.961E+00 0.000E+00

     total cpu time spent up to now is     2801.3 secs

     total energy              =   -8571.49024580 Ry
     Harris-Foulkes estimate   =   -8548.04450585 Ry
     estimated scf accuracy    <  161914.86728041 Ry

     iteration # 47     ecut=   100.00 Ry     beta= 0.50
     CG style diagonalization
     c_bands:  1 eigenvalues not converged
     c_bands:  2 eigenvalues not converged
     c_bands:  1 eigenvalues not converged
     c_bands:  1 eigenvalues not converged
     c_bands:  1 eigenvalues not converged
     c_bands:  1 eigenvalues not converged
     c_bands:  1 eigenvalues not converged
     ethr =  1.00E-02,  avg # of iterations =  4.7

     negative rho (up, down):  6.661E+00 0.000E+00

     total cpu time spent up to now is     2856.6 secs

     total energy              =   -9190.99710905 Ry
     Harris-Foulkes estimate   =   -8610.50937225 Ry
     estimated scf accuracy    <  177743.90561971 Ry

     iteration # 48     ecut=   100.00 Ry     beta= 0.50
     CG style diagonalization
     c_bands:  1 eigenvalues not converged
     c_bands:  1 eigenvalues not converged
     c_bands:  1 eigenvalues not converged
     c_bands:  1 eigenvalues not converged
     ethr =  1.00E-02,  avg # of iterations = 16.8

     negative rho (up, down):  3.245E+01 0.000E+00

     total cpu time spent up to now is     3076.6 secs

     total energy              =   -9383.15391896 Ry
     Harris-Foulkes estimate   =   -9335.25151942 Ry
     estimated scf accuracy    <  178729.34452497 Ry

     iteration # 49     ecut=   100.00 Ry     beta= 0.50
     CG style diagonalization
     c_bands:  2 eigenvalues not converged
     c_bands:  5 eigenvalues not converged
     c_bands:  1 eigenvalues not converged
     c_bands:  2 eigenvalues not converged
     c_bands:  2 eigenvalues not converged
     c_bands:  3 eigenvalues not converged
     c_bands:  2 eigenvalues not converged
     c_bands:  4 eigenvalues not converged
     ethr =  1.00E-02,  avg # of iterations = 29.9

     negative rho (up, down):  3.584E+01 0.000E+00

     total cpu time spent up to now is     3453.0 secs

     total energy              =   -9995.45086575 Ry
     Harris-Foulkes estimate   =  -10003.54122053 Ry
     estimated scf accuracy    <  207348.19908175 Ry

     iteration # 50     ecut=   100.00 Ry     beta= 0.50
     CG style diagonalization
     c_bands:  1 eigenvalues not converged
     c_bands:  2 eigenvalues not converged
     c_bands:  1 eigenvalues not converged
     c_bands:  1 eigenvalues not converged
     ethr =  1.00E-02,  avg # of iterations = 13.6

     negative rho (up, down):  2.068E+01 0.000E+00

     total cpu time spent up to now is     3619.4 secs

     total energy              =   -9257.70418131 Ry
     Harris-Foulkes estimate   =  -10122.07338885 Ry
     estimated scf accuracy    <  193092.82709878 Ry

     iteration # 51     ecut=   100.00 Ry     beta= 0.50
     CG style diagonalization
     c_bands:  3 eigenvalues not converged
     c_bands:  5 eigenvalues not converged
     c_bands:  5 eigenvalues not converged
     ethr =  1.00E-02,  avg # of iterations = 11.9

     negative rho (up, down):  9.210E+00 0.000E+00

     total cpu time spent up to now is     3766.3 secs

     total energy              =   -8046.55108622 Ry
     Harris-Foulkes estimate   =   -9523.88772051 Ry
     estimated scf accuracy    <  216449.54207605 Ry

     iteration # 52     ecut=   100.00 Ry     beta= 0.50
     CG style diagonalization
     c_bands:  3 eigenvalues not converged
     c_bands:  1 eigenvalues not converged
     c_bands:  1 eigenvalues not converged
     c_bands:  2 eigenvalues not converged
     c_bands:  2 eigenvalues not converged
     c_bands:  1 eigenvalues not converged
     c_bands:  5 eigenvalues not converged
     ethr =  1.00E-02,  avg # of iterations =  7.7

     negative rho (up, down):  1.753E+01 0.000E+00

     total cpu time spent up to now is     3863.2 secs

     total energy              =   -8484.32849658 Ry
     Harris-Foulkes estimate   =   -8122.56292079 Ry
     estimated scf accuracy    <  184886.42949576 Ry

     iteration # 53     ecut=   100.00 Ry     beta= 0.50
     CG style diagonalization
     c_bands:  4 eigenvalues not converged
     c_bands:  4 eigenvalues not converged
     c_bands:  3 eigenvalues not converged
     c_bands:  4 eigenvalues not converged
     c_bands:  1 eigenvalues not converged
     c_bands:  2 eigenvalues not converged
     c_bands:  5 eigenvalues not converged
     c_bands:  4 eigenvalues not converged
     ethr =  1.00E-02,  avg # of iterations =  9.5

     negative rho (up, down):  2.682E+01 0.000E+00

     total cpu time spent up to now is     3981.1 secs

     total energy              =   -9070.41896563 Ry
     Harris-Foulkes estimate   =   -8647.36641108 Ry
     estimated scf accuracy    <  216432.02625373 Ry

     iteration # 54     ecut=   100.00 Ry     beta= 0.50
     CG style diagonalization
     c_bands:  2 eigenvalues not converged
     c_bands:  2 eigenvalues not converged
     c_bands:  3 eigenvalues not converged
     c_bands:  5 eigenvalues not converged
     c_bands:  1 eigenvalues not converged
     c_bands:  1 eigenvalues not converged
     c_bands:  2 eigenvalues not converged
     c_bands:  2 eigenvalues not converged
     ethr =  1.00E-02,  avg # of iterations =  4.7

     negative rho (up, down):  7.808E+01 0.000E+00

     total cpu time spent up to now is     4035.7 secs

     total energy              =  -11558.33739264 Ry
     Harris-Foulkes estimate   =   -9148.40569495 Ry
     estimated scf accuracy    <  197935.55082369 Ry

     iteration # 55     ecut=   100.00 Ry     beta= 0.50
     CG style diagonalization
     c_bands:  2 eigenvalues not converged
     c_bands:  3 eigenvalues not converged
     c_bands:  3 eigenvalues not converged
     c_bands:  1 eigenvalues not converged
     c_bands:  4 eigenvalues not converged
     c_bands:  4 eigenvalues not converged
     c_bands:  1 eigenvalues not converged
     c_bands:  2 eigenvalues not converged
     ethr =  1.00E-02,  avg # of iterations = 58.4

     negative rho (up, down):  8.528E+01 0.000E+00

     total cpu time spent up to now is     4780.1 secs

     total energy              =   -5690.16382411 Ry
     Harris-Foulkes estimate   =  -14110.77411797 Ry
     estimated scf accuracy    <  294657.32776914 Ry

     iteration # 56     ecut=   100.00 Ry     beta= 0.50
     CG style diagonalization
     c_bands:  2 eigenvalues not converged
     c_bands:  1 eigenvalues not converged
     c_bands:  1 eigenvalues not converged
     c_bands:  3 eigenvalues not converged
     c_bands:  1 eigenvalues not converged
     c_bands:  3 eigenvalues not converged
     c_bands:  5 eigenvalues not converged
     ethr =  1.00E-02,  avg # of iterations = 57.0

     negative rho (up, down):  4.405E+01 0.000E+00

     total cpu time spent up to now is     5504.7 secs

     total energy              =   -7481.55804057 Ry
     Harris-Foulkes estimate   =  -10693.43931342 Ry
     estimated scf accuracy    <  213890.10610556 Ry

     iteration # 57     ecut=   100.00 Ry     beta= 0.50
     CG style diagonalization
     c_bands:  1 eigenvalues not converged
     c_bands:  1 eigenvalues not converged
     ethr =  1.00E-02,  avg # of iterations = 37.6

     negative rho (up, down):  4.693E+01 0.000E+00

     total cpu time spent up to now is     5981.4 secs

     total energy              =   -9601.46397711 Ry
     Harris-Foulkes estimate   =   -9306.16756895 Ry
     estimated scf accuracy    <  296298.85215403 Ry

     iteration # 58     ecut=   100.00 Ry     beta= 0.50
     CG style diagonalization
     c_bands:  3 eigenvalues not converged
     c_bands:  1 eigenvalues not converged
     c_bands:  2 eigenvalues not converged
     c_bands:  4 eigenvalues not converged
     c_bands:  1 eigenvalues not converged
     c_bands:  3 eigenvalues not converged
     c_bands:  4 eigenvalues not converged
     c_bands:  2 eigenvalues not converged
     ethr =  1.00E-02,  avg # of iterations = 19.2

     negative rho (up, down):  4.710E+01 0.000E+00

     total cpu time spent up to now is     6222.3 secs

     total energy              =   -9806.29430625 Ry
     Harris-Foulkes estimate   =   -9779.95770165 Ry
     estimated scf accuracy    <  299902.71473648 Ry

     iteration # 59     ecut=   100.00 Ry     beta= 0.50
     CG style diagonalization
     c_bands:  1 eigenvalues not converged
     c_bands:  4 eigenvalues not converged
     c_bands:  1 eigenvalues not converged
     c_bands:  3 eigenvalues not converged
     c_bands:  1 eigenvalues not converged
     ethr =  1.00E-02,  avg # of iterations =  4.0

     negative rho (up, down):  5.537E+01 0.000E+00

     total cpu time spent up to now is     6268.5 secs

     total energy              =   -9827.86092762 Ry
     Harris-Foulkes estimate   =   -9813.76972306 Ry
     estimated scf accuracy    <  303500.82246462 Ry

     iteration # 60     ecut=   100.00 Ry     beta= 0.50
     CG style diagonalization
     c_bands:  3 eigenvalues not converged
     c_bands:  5 eigenvalues not converged
     c_bands:  4 eigenvalues not converged
     c_bands:  5 eigenvalues not converged
     c_bands:  2 eigenvalues not converged
     c_bands:  2 eigenvalues not converged
     c_bands:  3 eigenvalues not converged
     ethr =  1.00E-02,  avg # of iterations = 26.7

     negative rho (up, down):  8.617E+01 0.000E+00

     total cpu time spent up to now is     6609.2 secs

     total energy              =   -8649.80195051 Ry
     Harris-Foulkes estimate   =  -10041.82221038 Ry
     estimated scf accuracy    <  301613.70048849 Ry

     iteration # 61     ecut=   100.00 Ry     beta= 0.50
     CG style diagonalization
     c_bands:  1 eigenvalues not converged
     c_bands:  1 eigenvalues not converged
     c_bands:  3 eigenvalues not converged
     c_bands:  5 eigenvalues not converged
     c_bands:  5 eigenvalues not converged
     c_bands:  1 eigenvalues not converged
     c_bands:  3 eigenvalues not converged
     c_bands:  4 eigenvalues not converged
     ethr =  1.00E-02,  avg # of iterations = 37.2

     negative rho (up, down):  9.393E+01 0.000E+00

     total cpu time spent up to now is     7080.7 secs

     total energy              =  -11643.19332034 Ry
     Harris-Foulkes estimate   =  -10962.68852459 Ry
     estimated scf accuracy    <  363382.50339932 Ry

     iteration # 62     ecut=   100.00 Ry     beta= 0.50
     CG style diagonalization
     c_bands:  1 eigenvalues not converged
     c_bands:  1 eigenvalues not converged
     c_bands:  1 eigenvalues not converged
     c_bands:  5 eigenvalues not converged
     c_bands:  4 eigenvalues not converged
     ethr =  1.00E-02,  avg # of iterations = 13.3

     negative rho (up, down):  9.261E+01 0.000E+00

     total cpu time spent up to now is     7322.4 secs

     total energy              =   -6543.77115592 Ry
     Harris-Foulkes estimate   =  -11753.88565220 Ry
     estimated scf accuracy    <  328628.55866642 Ry

     iteration # 63     ecut=   100.00 Ry     beta= 0.50
     CG style diagonalization
     c_bands:  5 eigenvalues not converged
     c_bands:  1 eigenvalues not converged
     c_bands:  3 eigenvalues not converged
     c_bands:  3 eigenvalues not converged
     c_bands:  3 eigenvalues not converged
     c_bands:  1 eigenvalues not converged
     c_bands:  1 eigenvalues not converged
     c_bands:  5 eigenvalues not converged
     ethr =  1.00E-02,  avg # of iterations = 35.4

     negative rho (up, down):  9.180E+01 0.000E+00

     total cpu time spent up to now is     7770.2 secs

     total energy              =   -8520.84998679 Ry
     Harris-Foulkes estimate   =  -13454.60621844 Ry
     estimated scf accuracy    <  516688.63301818 Ry

     iteration # 64     ecut=   100.00 Ry     beta= 0.50
     CG style diagonalization
     c_bands:  1 eigenvalues not converged
     c_bands:  1 eigenvalues not converged
     ethr =  1.00E-02,  avg # of iterations = 45.6

     negative rho (up, down):  2.237E+02 0.000E+00

     total cpu time spent up to now is     8346.7 secs

     total energy              =  -12118.03101410 Ry
     Harris-Foulkes estimate   =  -10848.98170125 Ry
     estimated scf accuracy    <  455861.61592568 Ry

     iteration # 65     ecut=   100.00 Ry     beta= 0.50
     CG style diagonalization
     c_bands:  2 eigenvalues not converged
     c_bands:  3 eigenvalues not converged
     c_bands:  5 eigenvalues not converged
     c_bands:  2 eigenvalues not converged
     c_bands:  4 eigenvalues not converged
     c_bands:  1 eigenvalues not converged
     c_bands:  2 eigenvalues not converged
     c_bands:  1 eigenvalues not converged
     ethr =  1.00E-02,  avg # of iterations = 53.1

     negative rho (up, down):  3.789E+02 0.000E+00

     total cpu time spent up to now is     9023.5 secs

     total energy              =  -11494.81544273 Ry
     Harris-Foulkes estimate   =  -14522.67972585 Ry
     estimated scf accuracy    <  380062.71269340 Ry

     iteration # 66     ecut=   100.00 Ry     beta= 0.50
     CG style diagonalization
     c_bands:  2 eigenvalues not converged
     c_bands:  1 eigenvalues not converged
     c_bands:  5 eigenvalues not converged
     c_bands:  1 eigenvalues not converged
     c_bands:  2 eigenvalues not converged
     c_bands:  2 eigenvalues not converged
     c_bands:  4 eigenvalues not converged
     c_bands:  4 eigenvalues not converged
     ethr =  1.00E-02,  avg # of iterations = 63.8

     negative rho (up, down):  3.459E+02 0.000E+00

     total cpu time spent up to now is     9841.0 secs

     total energy              =   -8022.79145059 Ry
     Harris-Foulkes estimate   =  -15525.24028608 Ry
     estimated scf accuracy    <  301152.51769758 Ry

     iteration # 67     ecut=   100.00 Ry     beta= 0.50
     CG style diagonalization
     c_bands:  2 eigenvalues not converged
     c_bands:  4 eigenvalues not converged
     c_bands:  3 eigenvalues not converged
     c_bands:  2 eigenvalues not converged
     c_bands:  3 eigenvalues not converged
     c_bands:  4 eigenvalues not converged
     c_bands:  4 eigenvalues not converged
     c_bands:  3 eigenvalues not converged
     ethr =  1.00E-02,  avg # of iterations = 47.6

     negative rho (up, down):  3.760E+02 0.000E+00

     total cpu time spent up to now is    10453.9 secs

     total energy              =  -15199.61707558 Ry
     Harris-Foulkes estimate   =  -14739.78056548 Ry
     estimated scf accuracy    <  142809.19050411 Ry

     iteration # 68     ecut=   100.00 Ry     beta= 0.50
     CG style diagonalization
     c_bands:  4 eigenvalues not converged
     c_bands:  2 eigenvalues not converged
     c_bands:  5 eigenvalues not converged
     c_bands:  1 eigenvalues not converged
     c_bands:  5 eigenvalues not converged
     c_bands:  2 eigenvalues not converged
     c_bands:  3 eigenvalues not converged
     ethr =  1.00E-02,  avg # of iterations =  6.6

     negative rho (up, down):  5.098E+02 0.000E+00

     total cpu time spent up to now is    10534.0 secs

     total energy              =  -16090.69666685 Ry
     Harris-Foulkes estimate   =  -15242.27383721 Ry
     estimated scf accuracy    <  153528.15992904 Ry

     iteration # 69     ecut=   100.00 Ry     beta= 0.50
     CG style diagonalization
     c_bands:  4 eigenvalues not converged
     c_bands:  3 eigenvalues not converged
     c_bands:  3 eigenvalues not converged
     c_bands:  1 eigenvalues not converged
     c_bands:  2 eigenvalues not converged
     c_bands:  3 eigenvalues not converged
     c_bands:  5 eigenvalues not converged
     c_bands:  1 eigenvalues not converged
     ethr =  1.00E-02,  avg # of iterations = 50.3

     negative rho (up, down):  4.937E+02 0.000E+00

     total cpu time spent up to now is    11171.9 secs

     total energy              =  -15300.59708895 Ry
     Harris-Foulkes estimate   =  -16975.77116302 Ry
     estimated scf accuracy    <   99543.63754137 Ry

     iteration # 70     ecut=   100.00 Ry     beta= 0.50
     CG style diagonalization
     c_bands:  1 eigenvalues not converged
     c_bands:  4 eigenvalues not converged
     c_bands:  4 eigenvalues not converged
     c_bands:  3 eigenvalues not converged
     c_bands:  2 eigenvalues not converged
     c_bands:  5 eigenvalues not converged
     c_bands:  1 eigenvalues not converged
     c_bands:  2 eigenvalues not converged
     ethr =  1.00E-02,  avg # of iterations = 54.4

     negative rho (up, down):  6.529E+02 0.000E+00

     total cpu time spent up to now is    11867.3 secs

     total energy              =  -17424.67168144 Ry
     Harris-Foulkes estimate   =  -17550.95485334 Ry
     estimated scf accuracy    <   59711.02405317 Ry

     iteration # 71     ecut=   100.00 Ry     beta= 0.50
     CG style diagonalization
     c_bands:  3 eigenvalues not converged
     c_bands:  3 eigenvalues not converged
     c_bands:  2 eigenvalues not converged
     c_bands:  3 eigenvalues not converged
     c_bands:  5 eigenvalues not converged
     c_bands:  2 eigenvalues not converged
     c_bands:  3 eigenvalues not converged
     c_bands:  4 eigenvalues not converged
     ethr =  1.00E-02,  avg # of iterations = 64.8

     negative rho (up, down):  7.416E+02 0.000E+00

     total cpu time spent up to now is    12695.8 secs

     total energy              =  -18664.59723563 Ry
     Harris-Foulkes estimate   =  -18512.47319276 Ry
     estimated scf accuracy    <   17551.27422539 Ry

     iteration # 72     ecut=   100.00 Ry     beta= 0.50
     CG style diagonalization
     c_bands:  3 eigenvalues not converged
     c_bands:  4 eigenvalues not converged
     c_bands:  5 eigenvalues not converged
     c_bands:  2 eigenvalues not converged
     c_bands:  3 eigenvalues not converged
     ethr =  1.00E-02,  avg # of iterations = 45.3

     negative rho (up, down):  7.835E+02 0.000E+00

     total cpu time spent up to now is    13274.5 secs

     total energy              =  -19024.14773110 Ry
     Harris-Foulkes estimate   =  -19170.29099405 Ry
     estimated scf accuracy    <    7019.54700790 Ry

     iteration # 73     ecut=   100.00 Ry     beta= 0.50
     CG style diagonalization
     c_bands:  3 eigenvalues not converged
     c_bands:  3 eigenvalues not converged
     c_bands:  3 eigenvalues not converged
     c_bands:  4 eigenvalues not converged
     c_bands:  5 eigenvalues not converged
     c_bands:  5 eigenvalues not converged
     c_bands:  5 eigenvalues not converged
     c_bands:  4 eigenvalues not converged
     ethr =  1.00E-02,  avg # of iterations = 34.1

     negative rho (up, down):  8.092E+02 0.000E+00

     total cpu time spent up to now is    13700.9 secs

     total energy              =  -19334.54916550 Ry
     Harris-Foulkes estimate   =  -19329.95823082 Ry
     estimated scf accuracy    <    3619.37915062 Ry

     iteration # 74     ecut=   100.00 Ry     beta= 0.50
     CG style diagonalization
     c_bands:  2 eigenvalues not converged
     c_bands:  1 eigenvalues not converged
     c_bands:  3 eigenvalues not converged
     c_bands:  3 eigenvalues not converged
     c_bands:  5 eigenvalues not converged
     c_bands:  2 eigenvalues not converged
     c_bands:  5 eigenvalues not converged
     c_bands:  5 eigenvalues not converged
     ethr =  1.00E-02,  avg # of iterations = 31.6

     negative rho (up, down):  8.123E+02 0.000E+00

     total cpu time spent up to now is    14095.2 secs

     total energy              =  -19655.54360038 Ry
     Harris-Foulkes estimate   =  -19706.50424663 Ry
     estimated scf accuracy    <    2078.46196790 Ry

     iteration # 75     ecut=   100.00 Ry     beta= 0.50
     CG style diagonalization
     c_bands:  4 eigenvalues not converged
     c_bands:  2 eigenvalues not converged
     c_bands:  3 eigenvalues not converged
     c_bands:  2 eigenvalues not converged
     c_bands:  2 eigenvalues not converged
     c_bands:  4 eigenvalues not converged
     c_bands:  3 eigenvalues not converged
     c_bands:  4 eigenvalues not converged
     ethr =  1.00E-02,  avg # of iterations = 15.7

     negative rho (up, down):  8.156E+02 0.000E+00

     total cpu time spent up to now is    14288.0 secs

     total energy              =  -19760.22694635 Ry
     Harris-Foulkes estimate   =  -19783.71904413 Ry
     estimated scf accuracy    <    1175.62749761 Ry

     iteration # 76     ecut=   100.00 Ry     beta= 0.50
     CG style diagonalization
     c_bands:  1 eigenvalues not converged
     c_bands:  1 eigenvalues not converged
     c_bands:  1 eigenvalues not converged
     c_bands:  1 eigenvalues not converged
     ethr =  1.00E-02,  avg # of iterations =  3.9

     negative rho (up, down):  8.249E+02 0.000E+00

     total cpu time spent up to now is    14333.8 secs

     total energy              =  -19727.79177490 Ry
     Harris-Foulkes estimate   =  -19767.24498716 Ry
     estimated scf accuracy    <     823.65281345 Ry

     iteration # 77     ecut=   100.00 Ry     beta= 0.50
     CG style diagonalization
     c_bands:  3 eigenvalues not converged
     c_bands:  1 eigenvalues not converged
     c_bands:  4 eigenvalues not converged
     c_bands:  3 eigenvalues not converged
     c_bands:  4 eigenvalues not converged
     c_bands:  2 eigenvalues not converged
     c_bands:  3 eigenvalues not converged
     c_bands:  2 eigenvalues not converged
     ethr =  1.00E-02,  avg # of iterations = 16.4

     negative rho (up, down):  8.257E+02 0.000E+00

     total cpu time spent up to now is    14531.9 secs

     total energy              =  -19804.05747451 Ry
     Harris-Foulkes estimate   =  -19814.53302052 Ry
     estimated scf accuracy    <     432.74886674 Ry

     iteration # 78     ecut=   100.00 Ry     beta= 0.50
     CG style diagonalization
     c_bands:  2 eigenvalues not converged
     c_bands:  2 eigenvalues not converged
     c_bands:  1 eigenvalues not converged
     c_bands:  4 eigenvalues not converged
     c_bands:  4 eigenvalues not converged
     ethr =  1.00E-02,  avg # of iterations =  4.3

     negative rho (up, down):  8.275E+02 0.000E+00

     total cpu time spent up to now is    14581.6 secs

     total energy              =  -19675.50250525 Ry
     Harris-Foulkes estimate   =  -19814.62694839 Ry
     estimated scf accuracy    <     393.10809569 Ry

     iteration # 79     ecut=   100.00 Ry     beta= 0.50
     CG style diagonalization
     c_bands:  1 eigenvalues not converged
     c_bands:  4 eigenvalues not converged
     c_bands:  5 eigenvalues not converged
     c_bands:  3 eigenvalues not converged
     c_bands:  4 eigenvalues not converged
     c_bands:  4 eigenvalues not converged
     c_bands:  4 eigenvalues not converged
     c_bands:  4 eigenvalues not converged
     ethr =  1.00E-02,  avg # of iterations = 10.1

     negative rho (up, down):  8.273E+02 0.000E+00

     total cpu time spent up to now is    14702.0 secs

     total energy              =  -19762.85585803 Ry
     Harris-Foulkes estimate   =  -19783.82808422 Ry
     estimated scf accuracy    <     132.41938454 Ry

     iteration # 80     ecut=   100.00 Ry     beta= 0.50
     CG style diagonalization
     c_bands:  2 eigenvalues not converged
     c_bands:  1 eigenvalues not converged
     c_bands:  3 eigenvalues not converged
     c_bands:  2 eigenvalues not converged
     c_bands:  2 eigenvalues not converged
     c_bands:  3 eigenvalues not converged
     c_bands:  5 eigenvalues not converged
     c_bands:  3 eigenvalues not converged
     ethr =  1.00E-02,  avg # of iterations =  5.9

     negative rho (up, down):  8.263E+02 0.000E+00

     total cpu time spent up to now is    14771.5 secs

     total energy              =  -19763.38306246 Ry
     Harris-Foulkes estimate   =  -19777.68762650 Ry
     estimated scf accuracy    <      67.82772569 Ry

     iteration # 81     ecut=   100.00 Ry     beta= 0.50
     CG style diagonalization
     c_bands:  1 eigenvalues not converged
     c_bands:  1 eigenvalues not converged
     ethr =  1.00E-02,  avg # of iterations =  3.4

     negative rho (up, down):  8.258E+02 0.000E+00

     total cpu time spent up to now is    14808.1 secs

     total energy              =  -19762.31124663 Ry
     Harris-Foulkes estimate   =  -19765.93599171 Ry
     estimated scf accuracy    <      20.32963855 Ry

     iteration # 82     ecut=   100.00 Ry     beta= 0.50
     CG style diagonalization
     c_bands:  2 eigenvalues not converged
     c_bands:  2 eigenvalues not converged
     c_bands:  1 eigenvalues not converged
     ethr =  1.00E-02,  avg # of iterations =  4.0

     negative rho (up, down):  8.261E+02 0.000E+00

     total cpu time spent up to now is    14853.9 secs

     total energy              =  -19768.22002876 Ry
     Harris-Foulkes estimate   =  -19769.29287584 Ry
     estimated scf accuracy    <       5.46650299 Ry

     iteration # 83     ecut=   100.00 Ry     beta= 0.50
     CG style diagonalization
     c_bands:  5 eigenvalues not converged
     c_bands:  1 eigenvalues not converged
     c_bands:  2 eigenvalues not converged
     c_bands:  5 eigenvalues not converged
     c_bands:  2 eigenvalues not converged
     c_bands:  5 eigenvalues not converged
     c_bands:  4 eigenvalues not converged
     ethr =  3.11E-03,  avg # of iterations = 19.4

     negative rho (up, down):  8.262E+02 0.000E+00

     total cpu time spent up to now is    15100.3 secs

     total energy              =  -19811.22636887 Ry
     Harris-Foulkes estimate   =  -19810.46249994 Ry
     estimated scf accuracy    <      59.47923965 Ry

     iteration # 84     ecut=   100.00 Ry     beta= 0.50
     CG style diagonalization
     c_bands:  1 eigenvalues not converged
     c_bands:  2 eigenvalues not converged
     c_bands:  1 eigenvalues not converged
     c_bands:  1 eigenvalues not converged
     c_bands:  4 eigenvalues not converged
     c_bands:  1 eigenvalues not converged
     c_bands:  2 eigenvalues not converged
     ethr =  3.11E-03,  avg # of iterations =  4.3

     negative rho (up, down):  8.259E+02 0.000E+00

     total cpu time spent up to now is    15150.1 secs

     total energy              =  -19820.98337127 Ry
     Harris-Foulkes estimate   =  -19814.54518353 Ry
     estimated scf accuracy    <      68.75044321 Ry

     iteration # 85     ecut=   100.00 Ry     beta= 0.50
     CG style diagonalization
     c_bands:  5 eigenvalues not converged
     c_bands:  4 eigenvalues not converged
     c_bands:  1 eigenvalues not converged
     c_bands:  4 eigenvalues not converged
     c_bands:  2 eigenvalues not converged
     c_bands:  2 eigenvalues not converged
     c_bands:  1 eigenvalues not converged
     ethr =  3.11E-03,  avg # of iterations =  4.4

     negative rho (up, down):  8.259E+02 0.000E+00

     total cpu time spent up to now is    15201.9 secs

     total energy              =  -19825.76397002 Ry
     Harris-Foulkes estimate   =  -19825.32192407 Ry
     estimated scf accuracy    <     101.54196742 Ry

     iteration # 86     ecut=   100.00 Ry     beta= 0.50
     CG style diagonalization
     c_bands:  2 eigenvalues not converged
     c_bands:  1 eigenvalues not converged
     c_bands:  2 eigenvalues not converged
     c_bands:  1 eigenvalues not converged
     ethr =  3.11E-03,  avg # of iterations =  3.7

     negative rho (up, down):  8.259E+02 0.000E+00

     total cpu time spent up to now is    15244.1 secs

     total energy              =  -19828.68856113 Ry
     Harris-Foulkes estimate   =  -19827.53206959 Ry
     estimated scf accuracy    <     105.43393067 Ry

     iteration # 87     ecut=   100.00 Ry     beta= 0.50
     CG style diagonalization
     c_bands:  3 eigenvalues not converged
     c_bands:  3 eigenvalues not converged
     c_bands:  2 eigenvalues not converged
     ethr =  3.11E-03,  avg # of iterations =  3.6

     negative rho (up, down):  8.258E+02 0.000E+00

     total cpu time spent up to now is    15283.6 secs

     total energy              =  -19820.59193898 Ry
     Harris-Foulkes estimate   =  -19830.60448850 Ry
     estimated scf accuracy    <     109.50073171 Ry

     iteration # 88     ecut=   100.00 Ry     beta= 0.50
     CG style diagonalization
     c_bands:  1 eigenvalues not converged
     c_bands:  1 eigenvalues not converged
     c_bands:  1 eigenvalues not converged
     ethr =  3.11E-03,  avg # of iterations =  3.4

     negative rho (up, down):  8.254E+02 0.000E+00

     total cpu time spent up to now is    15320.0 secs

     total energy              =  -19815.85273231 Ry
     Harris-Foulkes estimate   =  -19821.48363107 Ry
     estimated scf accuracy    <      93.24969553 Ry

     iteration # 89     ecut=   100.00 Ry     beta= 0.50
     CG style diagonalization
     c_bands:  1 eigenvalues not converged
     ethr =  3.11E-03,  avg # of iterations =  3.1

     negative rho (up, down):  8.254E+02 0.000E+00

     total cpu time spent up to now is    15352.8 secs

     total energy              =  -19818.25797839 Ry
     Harris-Foulkes estimate   =  -19816.48826535 Ry
     estimated scf accuracy    <      71.86030406 Ry

     iteration # 90     ecut=   100.00 Ry     beta= 0.50
     CG style diagonalization
     ethr =  3.11E-03,  avg # of iterations =  3.0

     negative rho (up, down):  8.254E+02 0.000E+00

     total cpu time spent up to now is    15384.9 secs

     total energy              =  -19814.44691914 Ry
     Harris-Foulkes estimate   =  -19818.49572849 Ry
     estimated scf accuracy    <      82.10692171 Ry

     iteration # 91     ecut=   100.00 Ry     beta= 0.50
     CG style diagonalization
     ethr =  3.11E-03,  avg # of iterations =  3.0

     negative rho (up, down):  8.251E+02 0.000E+00

     total cpu time spent up to now is    15417.0 secs

     total energy              =  -19798.93595591 Ry
     Harris-Foulkes estimate   =  -19814.72830958 Ry
     estimated scf accuracy    <      78.65339477 Ry

     iteration # 92     ecut=   100.00 Ry     beta= 0.50
     CG style diagonalization
     c_bands:  1 eigenvalues not converged
     ethr =  3.11E-03,  avg # of iterations =  3.3

     negative rho (up, down):  8.251E+02 0.000E+00

     total cpu time spent up to now is    15452.8 secs

     total energy              =  -19801.44298881 Ry
     Harris-Foulkes estimate   =  -19799.77322012 Ry
     estimated scf accuracy    <      36.51477196 Ry

     iteration # 93     ecut=   100.00 Ry     beta= 0.50
     CG style diagonalization
     ethr =  3.11E-03,  avg # of iterations =  3.3

     negative rho (up, down):  8.253E+02 0.000E+00

     total cpu time spent up to now is    15488.6 secs

     total energy              =  -19800.57313534 Ry
     Harris-Foulkes estimate   =  -19802.51758798 Ry
     estimated scf accuracy    <      88.97282829 Ry

     iteration # 94     ecut=   100.00 Ry     beta= 0.50
     CG style diagonalization
     c_bands:  1 eigenvalues not converged
     ethr =  3.11E-03,  avg # of iterations =  3.2

     negative rho (up, down):  8.256E+02 0.000E+00

     total cpu time spent up to now is    15523.6 secs

     total energy              =  -19799.63310166 Ry
     Harris-Foulkes estimate   =  -19801.57911602 Ry
     estimated scf accuracy    <     108.84562036 Ry

     iteration # 95     ecut=   100.00 Ry     beta= 0.50
     CG style diagonalization
     c_bands:  1 eigenvalues not converged
     ethr =  3.11E-03,  avg # of iterations =  3.1

     negative rho (up, down):  8.261E+02 0.000E+00

     total cpu time spent up to now is    15556.7 secs

     total energy              =  -19779.83336110 Ry
     Harris-Foulkes estimate   =  -19799.95931279 Ry
     estimated scf accuracy    <     112.90457336 Ry

     iteration # 96     ecut=   100.00 Ry     beta= 0.50
     CG style diagonalization
     c_bands:  3 eigenvalues not converged
     c_bands:  2 eigenvalues not converged
     c_bands:  2 eigenvalues not converged
     c_bands:  3 eigenvalues not converged
     c_bands:  3 eigenvalues not converged
     c_bands:  5 eigenvalues not converged
     ethr =  3.11E-03,  avg # of iterations = 27.6

     negative rho (up, down):  8.259E+02 0.000E+00

     total cpu time spent up to now is    15897.4 secs

     total energy              =  -19801.41384264 Ry
     Harris-Foulkes estimate   =  -19858.26781875 Ry
     estimated scf accuracy    <     431.55439640 Ry

     iteration # 97     ecut=   100.00 Ry     beta= 0.50
     CG style diagonalization
     c_bands:  1 eigenvalues not converged
     c_bands:  1 eigenvalues not converged
     c_bands:  1 eigenvalues not converged
     ethr =  3.11E-03,  avg # of iterations =  4.2

     negative rho (up, down):  8.259E+02 0.000E+00

     total cpu time spent up to now is    15945.7 secs

     total energy              =  -19781.74810768 Ry
     Harris-Foulkes estimate   =  -19803.59108097 Ry
     estimated scf accuracy    <     345.91448653 Ry

     iteration # 98     ecut=   100.00 Ry     beta= 0.50
     CG style diagonalization
     c_bands:  2 eigenvalues not converged
     c_bands:  2 eigenvalues not converged
     c_bands:  5 eigenvalues not converged
     c_bands:  4 eigenvalues not converged
     c_bands:  2 eigenvalues not converged
     c_bands:  1 eigenvalues not converged
     c_bands:  4 eigenvalues not converged
     c_bands:  2 eigenvalues not converged
     ethr =  3.11E-03,  avg # of iterations =  5.2

     negative rho (up, down):  8.258E+02 0.000E+00

     total cpu time spent up to now is    16007.8 secs

     total energy              =  -19773.38068172 Ry
     Harris-Foulkes estimate   =  -19787.33962774 Ry
     estimated scf accuracy    <     286.95530750 Ry

     iteration # 99     ecut=   100.00 Ry     beta= 0.50
     CG style diagonalization
     c_bands:  5 eigenvalues not converged
     c_bands:  3 eigenvalues not converged
     c_bands:  2 eigenvalues not converged
     c_bands:  1 eigenvalues not converged
     c_bands:  3 eigenvalues not converged
     c_bands:  5 eigenvalues not converged
     c_bands:  2 eigenvalues not converged
     c_bands:  2 eigenvalues not converged
     ethr =  3.11E-03,  avg # of iterations = 14.3

     negative rho (up, down):  8.257E+02 0.000E+00

     total cpu time spent up to now is    16184.6 secs

     total energy              =  -19799.27371018 Ry
     Harris-Foulkes estimate   =  -19798.12458502 Ry
     estimated scf accuracy    <     191.47518388 Ry

     iteration #100     ecut=   100.00 Ry     beta= 0.50
     CG style diagonalization
     c_bands:  1 eigenvalues not converged
     c_bands:  1 eigenvalues not converged
     ethr =  3.11E-03,  avg # of iterations =  3.5

     negative rho (up, down):  8.256E+02 0.000E+00

     total cpu time spent up to now is    16223.3 secs

     total energy              =  -19799.11932964 Ry
     Harris-Foulkes estimate   =  -19800.17339944 Ry
     estimated scf accuracy    <     198.49787212 Ry

     End of self-consistent calculation

     convergence NOT achieved after 100 iterations: stopping

     Writing output data file CsSnI3.save/
 
     init_run     :      4.88s CPU      5.45s WALL (       1 calls)
     electrons    :  15898.59s CPU  16213.81s WALL (       1 calls)

     Called by init_run:
     wfcinit      :      2.16s CPU      2.32s WALL (       1 calls)
     wfcinit:atom :      0.03s CPU      0.03s WALL (       8 calls)
     wfcinit:wfcr :      1.97s CPU      2.10s WALL (       8 calls)
     potinit      :      0.84s CPU      0.94s WALL (       1 calls)
     hinit0       :      1.16s CPU      1.29s WALL (       1 calls)

     Called by electrons:
     c_bands      :  15711.39s CPU  16005.76s WALL (     100 calls)
     sum_band     :    119.57s CPU    131.82s WALL (     100 calls)
     v_of_rho     :      3.19s CPU      3.52s WALL (     101 calls)
     v_h          :      0.27s CPU      0.28s WALL (     101 calls)
     v_xc         :      2.92s CPU      3.22s WALL (     101 calls)
     newd         :     37.66s CPU     44.77s WALL (     101 calls)
     PAW_pot      :     25.62s CPU     26.48s WALL (     101 calls)
     mix_rho      :      1.55s CPU      1.73s WALL (     100 calls)

     Called by c_bands:
     init_us_2    :     14.07s CPU     14.37s WALL (    1608 calls)
     ccgdiagg     :  15448.26s CPU  15735.96s WALL (    1292 calls)
     wfcrot       :    254.57s CPU    260.74s WALL (    1292 calls)

     Called by sum_band:
     sum_band:bec :      0.40s CPU      0.40s WALL (     800 calls)
     addusdens    :     44.88s CPU     55.66s WALL (     100 calls)

     Called by *cgdiagg:
     h_psi        :   7105.36s CPU   7230.80s WALL (  787700 calls)
     s_psi        :   5055.33s CPU   5126.59s WALL ( 1574108 calls)
     cdiaghg      :      6.13s CPU      6.81s WALL (    1292 calls)
     cdiaghg:chol :      0.39s CPU      0.41s WALL (    1292 calls)
     cdiaghg:inve :      0.20s CPU      0.22s WALL (    1292 calls)
     cdiaghg:para :      0.34s CPU      0.35s WALL (    2584 calls)

     Called by h_psi:
     h_psi:pot    :   7088.00s CPU   7214.59s WALL (  787700 calls)
     h_psi:calbec :   2922.58s CPU   2978.29s WALL (  787700 calls)
     vloc_psi     :   1505.32s CPU   1535.46s WALL (  787700 calls)
     add_vuspsi   :   2656.96s CPU   2695.52s WALL (  787700 calls)
     hs_1psi      :   9437.19s CPU   9594.86s WALL (  786408 calls)
     s_1psi       :   5132.23s CPU   5223.36s WALL (  786408 calls)

     General routines
     calbec       :   5530.58s CPU   5641.06s WALL ( 1574908 calls)
     fft          :      2.11s CPU      2.19s WALL (    1112 calls)
     ffts         :      0.20s CPU      0.21s WALL (     100 calls)
     fftw         :   1307.18s CPU   1334.64s WALL ( 1870864 calls)
     davcio       :      0.00s CPU      0.19s WALL (      26 calls)
 
     Parallel routines
     fft_scatt_xy :    129.99s CPU    132.50s WALL ( 1872076 calls)
     fft_scatt_yz :    596.39s CPU    609.64s WALL ( 1872076 calls)

     PAW routines
     PAW_pot      :     25.62s CPU     26.48s WALL (     101 calls)
     PAW_symme    :      0.08s CPU      0.09s WALL (     201 calls)
 
     PWSCF        :      4h25m CPU      4h30m WALL

 
   This run was terminated on:  23: 1:56  12Jan2021            

=------------------------------------------------------------------------------=
   JOB DONE.
=------------------------------------------------------------------------------=
