
     Program PWSCF v.6.4.1 starts on 12Jan2021 at 19:22:37 

     This program is part of the open-source Quantum ESPRESSO suite
     for quantum simulation of materials; please cite
         "P. Giannozzi et al., J. Phys.:Condens. Matter 21 395502 (2009);
         "P. Giannozzi et al., J. Phys.:Condens. Matter 29 465901 (2017);
          URL http://www.quantum-espresso.org", 
     in publications or presentations arising from this work. More details at
     http://www.quantum-espresso.org/quote

     Parallel version (MPI & OpenMP), running on      48 processor cores
     Number of MPI processes:                48
     Threads/MPI process:                     1

     MPI processes distributed on     1 nodes
     R & G space division:  proc/nbgrp/npool/nimage =      48
     Waiting for input...
     Reading input from standard input

     Current dimensions of program PWSCF are:
     Max number of different atomic species (ntypx) = 10
     Max number of k-points (npk) =  40000
     Max angular momentum in pseudopotentials (lmaxx) =  3
               file Cs.pbe-spn-kjpaw_psl.1.0.0.UPF: wavefunction(s)  5S 6S renormalized
               file I.pbe-n-kjpaw_psl.1.0.0.UPF: wavefunction(s)  5S renormalized

     Subspace diagonalization in iterative solution of the eigenvalue problem:
     one sub-group per band group will be used
     scalapack distributed-memory algorithm (size of sub-group:  4*  4 procs)

     Message from routine setup:
     DEPRECATED: symmetry with ibrav=0, use correct ibrav instead
 
     Parallelization info
     --------------------
     sticks:   dense  smooth     PW     G-vecs:    dense   smooth      PW
     Min          36      36     10                 1130     1130     172
     Max          37      37     11                 1134     1134     179
     Sum        1741    1741    497                54339    54339    8385
 

     Title: 
     CsIrsalt                                                                   


     bravais-lattice index     =            0
     lattice parameter (alat)  =       8.8160  a.u.
     unit-cell volume          =     685.1896 (a.u.)^3
     number of atoms/cell      =            2
     number of atomic types    =            2
     number of electrons       =        16.00
     number of Kohn-Sham states=            8
     kinetic-energy cutoff     =      70.0000  Ry
     charge density cutoff     =     280.0000  Ry
     convergence threshold     =      1.0E-06
     mixing beta               =       0.5000
     number of iterations used =            8  plain     mixing
     Exchange-correlation      = SLA PW PBX PBC ( 1  4  3  4 0 0)
     nstep                     =           50


     celldm(1)=   8.815973  celldm(2)=   0.000000  celldm(3)=   0.000000
     celldm(4)=   0.000000  celldm(5)=   0.000000  celldm(6)=   0.000000

     crystal axes: (cart. coord. in units of alat)
               a(1) = (   1.000000   0.000000   0.000000 )  
               a(2) = (   0.000000   1.000000   0.000000 )  
               a(3) = (   0.000000   0.000000   1.000000 )  

     reciprocal axes: (cart. coord. in units 2 pi/alat)
               b(1) = (  1.000000  0.000000  0.000000 )  
               b(2) = (  0.000000  1.000000  0.000000 )  
               b(3) = (  0.000000  0.000000  1.000000 )  


     PseudoPot. # 1 for Cs read from file:
     ../../../pseudo/Cs.pbe-spn-kjpaw_psl.1.0.0.UPF
     MD5 check sum: b82c75cc2e1f4ff73b6412cffeb9c584
     Pseudo is Projector augmented-wave + core cor, Zval =  9.0
     Generated using "atomic" code by A. Dal Corso v.6.4.1
     Shape of augmentation charge: PSQ
     Using radial grid of 1251 points,  9 beta functions with: 
                l(1) =   0
                l(2) =   0
                l(3) =   0
                l(4) =   1
                l(5) =   1
                l(6) =   2
                l(7) =   2
                l(8) =   3
                l(9) =   3
     Q(r) pseudized with 0 coefficients 


     PseudoPot. # 2 for I  read from file:
     ../../../pseudo/I.pbe-n-kjpaw_psl.1.0.0.UPF
     MD5 check sum: cd3d296c3308a581e1559a0c8a554cb5
     Pseudo is Projector augmented-wave + core cor, Zval =  7.0
     Generated using "atomic" code by A. Dal Corso v.6.3
     Shape of augmentation charge: PSQ
     Using radial grid of 1247 points,  6 beta functions with: 
                l(1) =   0
                l(2) =   0
                l(3) =   1
                l(4) =   1
                l(5) =   2
                l(6) =   2
     Q(r) pseudized with 0 coefficients 


     atomic species   valence    mass     pseudopotential
        Cs             9.00   132.90000     Cs( 1.00)
        I              7.00   126.90000     I ( 1.00)

     48 Sym. Ops., with inversion, found


                                    s                        frac. trans.

      isym =  1     identity                                     

 cryst.   s( 1) = (     1          0          0      )
                  (     0          1          0      )
                  (     0          0          1      )

 cart.    s( 1) = (  1.0000000  0.0000000  0.0000000 )
                  (  0.0000000  1.0000000  0.0000000 )
                  (  0.0000000  0.0000000  1.0000000 )


      isym =  2     180 deg rotation - cart. axis [0,0,1]        

 cryst.   s( 2) = (    -1          0          0      )
                  (     0         -1          0      )
                  (     0          0          1      )

 cart.    s( 2) = ( -1.0000000  0.0000000  0.0000000 )
                  (  0.0000000 -1.0000000  0.0000000 )
                  (  0.0000000  0.0000000  1.0000000 )


      isym =  3     180 deg rotation - cart. axis [0,1,0]        

 cryst.   s( 3) = (    -1          0          0      )
                  (     0          1          0      )
                  (     0          0         -1      )

 cart.    s( 3) = ( -1.0000000  0.0000000  0.0000000 )
                  (  0.0000000  1.0000000  0.0000000 )
                  (  0.0000000  0.0000000 -1.0000000 )


      isym =  4     180 deg rotation - cart. axis [1,0,0]        

 cryst.   s( 4) = (     1          0          0      )
                  (     0         -1          0      )
                  (     0          0         -1      )

 cart.    s( 4) = (  1.0000000  0.0000000  0.0000000 )
                  (  0.0000000 -1.0000000  0.0000000 )
                  (  0.0000000  0.0000000 -1.0000000 )


      isym =  5     180 deg rotation - cart. axis [1,1,0]        

 cryst.   s( 5) = (     0          1          0      )
                  (     1          0          0      )
                  (     0          0         -1      )

 cart.    s( 5) = (  0.0000000  1.0000000  0.0000000 )
                  (  1.0000000  0.0000000  0.0000000 )
                  (  0.0000000  0.0000000 -1.0000000 )


      isym =  6     180 deg rotation - cart. axis [1,-1,0]       

 cryst.   s( 6) = (     0         -1          0      )
                  (    -1          0          0      )
                  (     0          0         -1      )

 cart.    s( 6) = (  0.0000000 -1.0000000  0.0000000 )
                  ( -1.0000000  0.0000000  0.0000000 )
                  (  0.0000000  0.0000000 -1.0000000 )


      isym =  7      90 deg rotation - cart. axis [0,0,-1]       

 cryst.   s( 7) = (     0         -1          0      )
                  (     1          0          0      )
                  (     0          0          1      )

 cart.    s( 7) = (  0.0000000  1.0000000  0.0000000 )
                  ( -1.0000000  0.0000000  0.0000000 )
                  (  0.0000000  0.0000000  1.0000000 )


      isym =  8      90 deg rotation - cart. axis [0,0,1]        

 cryst.   s( 8) = (     0          1          0      )
                  (    -1          0          0      )
                  (     0          0          1      )

 cart.    s( 8) = (  0.0000000 -1.0000000  0.0000000 )
                  (  1.0000000  0.0000000  0.0000000 )
                  (  0.0000000  0.0000000  1.0000000 )


      isym =  9     180 deg rotation - cart. axis [1,0,1]        

 cryst.   s( 9) = (     0          0          1      )
                  (     0         -1          0      )
                  (     1          0          0      )

 cart.    s( 9) = (  0.0000000  0.0000000  1.0000000 )
                  (  0.0000000 -1.0000000  0.0000000 )
                  (  1.0000000  0.0000000  0.0000000 )


      isym = 10     180 deg rotation - cart. axis [-1,0,1]       

 cryst.   s(10) = (     0          0         -1      )
                  (     0         -1          0      )
                  (    -1          0          0      )

 cart.    s(10) = (  0.0000000  0.0000000 -1.0000000 )
                  (  0.0000000 -1.0000000  0.0000000 )
                  ( -1.0000000  0.0000000  0.0000000 )


      isym = 11      90 deg rotation - cart. axis [0,1,0]        

 cryst.   s(11) = (     0          0         -1      )
                  (     0          1          0      )
                  (     1          0          0      )

 cart.    s(11) = (  0.0000000  0.0000000  1.0000000 )
                  (  0.0000000  1.0000000  0.0000000 )
                  ( -1.0000000  0.0000000  0.0000000 )


      isym = 12      90 deg rotation - cart. axis [0,-1,0]       

 cryst.   s(12) = (     0          0          1      )
                  (     0          1          0      )
                  (    -1          0          0      )

 cart.    s(12) = (  0.0000000  0.0000000 -1.0000000 )
                  (  0.0000000  1.0000000  0.0000000 )
                  (  1.0000000  0.0000000  0.0000000 )


      isym = 13     180 deg rotation - cart. axis [0,1,1]        

 cryst.   s(13) = (    -1          0          0      )
                  (     0          0          1      )
                  (     0          1          0      )

 cart.    s(13) = ( -1.0000000  0.0000000  0.0000000 )
                  (  0.0000000  0.0000000  1.0000000 )
                  (  0.0000000  1.0000000  0.0000000 )


      isym = 14     180 deg rotation - cart. axis [0,1,-1]       

 cryst.   s(14) = (    -1          0          0      )
                  (     0          0         -1      )
                  (     0         -1          0      )

 cart.    s(14) = ( -1.0000000  0.0000000  0.0000000 )
                  (  0.0000000  0.0000000 -1.0000000 )
                  (  0.0000000 -1.0000000  0.0000000 )


      isym = 15      90 deg rotation - cart. axis [-1,0,0]       

 cryst.   s(15) = (     1          0          0      )
                  (     0          0         -1      )
                  (     0          1          0      )

 cart.    s(15) = (  1.0000000  0.0000000  0.0000000 )
                  (  0.0000000  0.0000000  1.0000000 )
                  (  0.0000000 -1.0000000  0.0000000 )


      isym = 16      90 deg rotation - cart. axis [1,0,0]        

 cryst.   s(16) = (     1          0          0      )
                  (     0          0          1      )
                  (     0         -1          0      )

 cart.    s(16) = (  1.0000000  0.0000000  0.0000000 )
                  (  0.0000000  0.0000000 -1.0000000 )
                  (  0.0000000  1.0000000  0.0000000 )


      isym = 17     120 deg rotation - cart. axis [-1,-1,-1]     

 cryst.   s(17) = (     0          0          1      )
                  (     1          0          0      )
                  (     0          1          0      )

 cart.    s(17) = (  0.0000000  1.0000000  0.0000000 )
                  (  0.0000000  0.0000000  1.0000000 )
                  (  1.0000000  0.0000000  0.0000000 )


      isym = 18     120 deg rotation - cart. axis [-1,1,1]       

 cryst.   s(18) = (     0          0         -1      )
                  (    -1          0          0      )
                  (     0          1          0      )

 cart.    s(18) = (  0.0000000 -1.0000000  0.0000000 )
                  (  0.0000000  0.0000000  1.0000000 )
                  ( -1.0000000  0.0000000  0.0000000 )


      isym = 19     120 deg rotation - cart. axis [1,1,-1]       

 cryst.   s(19) = (     0          0         -1      )
                  (     1          0          0      )
                  (     0         -1          0      )

 cart.    s(19) = (  0.0000000  1.0000000  0.0000000 )
                  (  0.0000000  0.0000000 -1.0000000 )
                  ( -1.0000000  0.0000000  0.0000000 )


      isym = 20     120 deg rotation - cart. axis [1,-1,1]       

 cryst.   s(20) = (     0          0          1      )
                  (    -1          0          0      )
                  (     0         -1          0      )

 cart.    s(20) = (  0.0000000 -1.0000000  0.0000000 )
                  (  0.0000000  0.0000000 -1.0000000 )
                  (  1.0000000  0.0000000  0.0000000 )


      isym = 21     120 deg rotation - cart. axis [1,1,1]        

 cryst.   s(21) = (     0          1          0      )
                  (     0          0          1      )
                  (     1          0          0      )

 cart.    s(21) = (  0.0000000  0.0000000  1.0000000 )
                  (  1.0000000  0.0000000  0.0000000 )
                  (  0.0000000  1.0000000  0.0000000 )


      isym = 22     120 deg rotation - cart. axis [-1,1,-1]      

 cryst.   s(22) = (     0         -1          0      )
                  (     0          0         -1      )
                  (     1          0          0      )

 cart.    s(22) = (  0.0000000  0.0000000  1.0000000 )
                  ( -1.0000000  0.0000000  0.0000000 )
                  (  0.0000000 -1.0000000  0.0000000 )


      isym = 23     120 deg rotation - cart. axis [1,-1,-1]      

 cryst.   s(23) = (     0         -1          0      )
                  (     0          0          1      )
                  (    -1          0          0      )

 cart.    s(23) = (  0.0000000  0.0000000 -1.0000000 )
                  ( -1.0000000  0.0000000  0.0000000 )
                  (  0.0000000  1.0000000  0.0000000 )


      isym = 24     120 deg rotation - cart. axis [-1,-1,1]      

 cryst.   s(24) = (     0          1          0      )
                  (     0          0         -1      )
                  (    -1          0          0      )

 cart.    s(24) = (  0.0000000  0.0000000 -1.0000000 )
                  (  1.0000000  0.0000000  0.0000000 )
                  (  0.0000000 -1.0000000  0.0000000 )


      isym = 25     inversion                                    

 cryst.   s(25) = (    -1          0          0      )
                  (     0         -1          0      )
                  (     0          0         -1      )

 cart.    s(25) = ( -1.0000000  0.0000000  0.0000000 )
                  (  0.0000000 -1.0000000  0.0000000 )
                  (  0.0000000  0.0000000 -1.0000000 )


      isym = 26     inv. 180 deg rotation - cart. axis [0,0,1]   

 cryst.   s(26) = (     1          0          0      )
                  (     0          1          0      )
                  (     0          0         -1      )

 cart.    s(26) = (  1.0000000  0.0000000  0.0000000 )
                  (  0.0000000  1.0000000  0.0000000 )
                  (  0.0000000  0.0000000 -1.0000000 )


      isym = 27     inv. 180 deg rotation - cart. axis [0,1,0]   

 cryst.   s(27) = (     1          0          0      )
                  (     0         -1          0      )
                  (     0          0          1      )

 cart.    s(27) = (  1.0000000  0.0000000  0.0000000 )
                  (  0.0000000 -1.0000000  0.0000000 )
                  (  0.0000000  0.0000000  1.0000000 )


      isym = 28     inv. 180 deg rotation - cart. axis [1,0,0]   

 cryst.   s(28) = (    -1          0          0      )
                  (     0          1          0      )
                  (     0          0          1      )

 cart.    s(28) = ( -1.0000000  0.0000000  0.0000000 )
                  (  0.0000000  1.0000000  0.0000000 )
                  (  0.0000000  0.0000000  1.0000000 )


      isym = 29     inv. 180 deg rotation - cart. axis [1,1,0]   

 cryst.   s(29) = (     0         -1          0      )
                  (    -1          0          0      )
                  (     0          0          1      )

 cart.    s(29) = (  0.0000000 -1.0000000  0.0000000 )
                  ( -1.0000000  0.0000000  0.0000000 )
                  (  0.0000000  0.0000000  1.0000000 )


      isym = 30     inv. 180 deg rotation - cart. axis [1,-1,0]  

 cryst.   s(30) = (     0          1          0      )
                  (     1          0          0      )
                  (     0          0          1      )

 cart.    s(30) = (  0.0000000  1.0000000  0.0000000 )
                  (  1.0000000  0.0000000  0.0000000 )
                  (  0.0000000  0.0000000  1.0000000 )


      isym = 31     inv.  90 deg rotation - cart. axis [0,0,-1]  

 cryst.   s(31) = (     0          1          0      )
                  (    -1          0          0      )
                  (     0          0         -1      )

 cart.    s(31) = (  0.0000000 -1.0000000  0.0000000 )
                  (  1.0000000  0.0000000  0.0000000 )
                  (  0.0000000  0.0000000 -1.0000000 )


      isym = 32     inv.  90 deg rotation - cart. axis [0,0,1]   

 cryst.   s(32) = (     0         -1          0      )
                  (     1          0          0      )
                  (     0          0         -1      )

 cart.    s(32) = (  0.0000000  1.0000000  0.0000000 )
                  ( -1.0000000  0.0000000  0.0000000 )
                  (  0.0000000  0.0000000 -1.0000000 )


      isym = 33     inv. 180 deg rotation - cart. axis [1,0,1]   

 cryst.   s(33) = (     0          0         -1      )
                  (     0          1          0      )
                  (    -1          0          0      )

 cart.    s(33) = (  0.0000000  0.0000000 -1.0000000 )
                  (  0.0000000  1.0000000  0.0000000 )
                  ( -1.0000000  0.0000000  0.0000000 )


      isym = 34     inv. 180 deg rotation - cart. axis [-1,0,1]  

 cryst.   s(34) = (     0          0          1      )
                  (     0          1          0      )
                  (     1          0          0      )

 cart.    s(34) = (  0.0000000  0.0000000  1.0000000 )
                  (  0.0000000  1.0000000  0.0000000 )
                  (  1.0000000  0.0000000  0.0000000 )


      isym = 35     inv.  90 deg rotation - cart. axis [0,1,0]   

 cryst.   s(35) = (     0          0          1      )
                  (     0         -1          0      )
                  (    -1          0          0      )

 cart.    s(35) = (  0.0000000  0.0000000 -1.0000000 )
                  (  0.0000000 -1.0000000  0.0000000 )
                  (  1.0000000  0.0000000  0.0000000 )


      isym = 36     inv.  90 deg rotation - cart. axis [0,-1,0]  

 cryst.   s(36) = (     0          0         -1      )
                  (     0         -1          0      )
                  (     1          0          0      )

 cart.    s(36) = (  0.0000000  0.0000000  1.0000000 )
                  (  0.0000000 -1.0000000  0.0000000 )
                  ( -1.0000000  0.0000000  0.0000000 )


      isym = 37     inv. 180 deg rotation - cart. axis [0,1,1]   

 cryst.   s(37) = (     1          0          0      )
                  (     0          0         -1      )
                  (     0         -1          0      )

 cart.    s(37) = (  1.0000000  0.0000000  0.0000000 )
                  (  0.0000000  0.0000000 -1.0000000 )
                  (  0.0000000 -1.0000000  0.0000000 )


      isym = 38     inv. 180 deg rotation - cart. axis [0,1,-1]  

 cryst.   s(38) = (     1          0          0      )
                  (     0          0          1      )
                  (     0          1          0      )

 cart.    s(38) = (  1.0000000  0.0000000  0.0000000 )
                  (  0.0000000  0.0000000  1.0000000 )
                  (  0.0000000  1.0000000  0.0000000 )


      isym = 39     inv.  90 deg rotation - cart. axis [-1,0,0]  

 cryst.   s(39) = (    -1          0          0      )
                  (     0          0          1      )
                  (     0         -1          0      )

 cart.    s(39) = ( -1.0000000  0.0000000  0.0000000 )
                  (  0.0000000  0.0000000 -1.0000000 )
                  (  0.0000000  1.0000000  0.0000000 )


      isym = 40     inv.  90 deg rotation - cart. axis [1,0,0]   

 cryst.   s(40) = (    -1          0          0      )
                  (     0          0         -1      )
                  (     0          1          0      )

 cart.    s(40) = ( -1.0000000  0.0000000  0.0000000 )
                  (  0.0000000  0.0000000  1.0000000 )
                  (  0.0000000 -1.0000000  0.0000000 )


      isym = 41     inv. 120 deg rotation - cart. axis [-1,-1,-1]

 cryst.   s(41) = (     0          0         -1      )
                  (    -1          0          0      )
                  (     0         -1          0      )

 cart.    s(41) = (  0.0000000 -1.0000000  0.0000000 )
                  (  0.0000000  0.0000000 -1.0000000 )
                  ( -1.0000000  0.0000000  0.0000000 )


      isym = 42     inv. 120 deg rotation - cart. axis [-1,1,1]  

 cryst.   s(42) = (     0          0          1      )
                  (     1          0          0      )
                  (     0         -1          0      )

 cart.    s(42) = (  0.0000000  1.0000000  0.0000000 )
                  (  0.0000000  0.0000000 -1.0000000 )
                  (  1.0000000  0.0000000  0.0000000 )


      isym = 43     inv. 120 deg rotation - cart. axis [1,1,-1]  

 cryst.   s(43) = (     0          0          1      )
                  (    -1          0          0      )
                  (     0          1          0      )

 cart.    s(43) = (  0.0000000 -1.0000000  0.0000000 )
                  (  0.0000000  0.0000000  1.0000000 )
                  (  1.0000000  0.0000000  0.0000000 )


      isym = 44     inv. 120 deg rotation - cart. axis [1,-1,1]  

 cryst.   s(44) = (     0          0         -1      )
                  (     1          0          0      )
                  (     0          1          0      )

 cart.    s(44) = (  0.0000000  1.0000000  0.0000000 )
                  (  0.0000000  0.0000000  1.0000000 )
                  ( -1.0000000  0.0000000  0.0000000 )


      isym = 45     inv. 120 deg rotation - cart. axis [1,1,1]   

 cryst.   s(45) = (     0         -1          0      )
                  (     0          0         -1      )
                  (    -1          0          0      )

 cart.    s(45) = (  0.0000000  0.0000000 -1.0000000 )
                  ( -1.0000000  0.0000000  0.0000000 )
                  (  0.0000000 -1.0000000  0.0000000 )


      isym = 46     inv. 120 deg rotation - cart. axis [-1,1,-1] 

 cryst.   s(46) = (     0          1          0      )
                  (     0          0          1      )
                  (    -1          0          0      )

 cart.    s(46) = (  0.0000000  0.0000000 -1.0000000 )
                  (  1.0000000  0.0000000  0.0000000 )
                  (  0.0000000  1.0000000  0.0000000 )


      isym = 47     inv. 120 deg rotation - cart. axis [1,-1,-1] 

 cryst.   s(47) = (     0          1          0      )
                  (     0          0         -1      )
                  (     1          0          0      )

 cart.    s(47) = (  0.0000000  0.0000000  1.0000000 )
                  (  1.0000000  0.0000000  0.0000000 )
                  (  0.0000000 -1.0000000  0.0000000 )


      isym = 48     inv. 120 deg rotation - cart. axis [-1,-1,1] 

 cryst.   s(48) = (     0         -1          0      )
                  (     0          0          1      )
                  (     1          0          0      )

 cart.    s(48) = (  0.0000000  0.0000000  1.0000000 )
                  ( -1.0000000  0.0000000  0.0000000 )
                  (  0.0000000  1.0000000  0.0000000 )


   Cartesian axes

     site n.     atom                  positions (alat units)
         1           Cs  tau(   1) = (   0.0000000   0.0000000   0.0000000  )
         2           I   tau(   2) = (   0.5000000   0.5000000   0.5000000  )

   Crystallographic axes

     site n.     atom                  positions (cryst. coord.)
         1           Cs  tau(   1) = (  0.0000000  0.0000000  0.0000000  )
         2           I   tau(   2) = (  0.5000000  0.5000000  0.5000000  )

     number of k points=     4
                       cart. coord. in units 2pi/alat
        k(    1) = (   0.0000000   0.0000000   0.0000000), wk =   0.2500000
        k(    2) = (   0.0000000   0.0000000  -0.5000000), wk =   0.7500000
        k(    3) = (   0.0000000  -0.5000000  -0.5000000), wk =   0.7500000
        k(    4) = (  -0.5000000  -0.5000000  -0.5000000), wk =   0.2500000

                       cryst. coord.
        k(    1) = (   0.0000000   0.0000000   0.0000000), wk =   0.2500000
        k(    2) = (   0.0000000   0.0000000  -0.5000000), wk =   0.7500000
        k(    3) = (   0.0000000  -0.5000000  -0.5000000), wk =   0.7500000
        k(    4) = (  -0.5000000  -0.5000000  -0.5000000), wk =   0.2500000

     Dense  grid:    54339 G-vectors     FFT dimensions: (  48,  48,  48)

     Dynamical RAM for                 wfc:       0.02 MB

     Dynamical RAM for     wfc (w. buffer):       0.09 MB

     Dynamical RAM for           str. fact:       0.03 MB

     Dynamical RAM for           local pot:       0.00 MB

     Dynamical RAM for          nlocal pot:       0.11 MB

     Dynamical RAM for                qrad:      22.61 MB

     Dynamical RAM for          rho,v,vnew:       0.10 MB

     Dynamical RAM for               rhoin:       0.03 MB

     Dynamical RAM for            rho*nmix:       0.28 MB

     Dynamical RAM for           G-vectors:       0.07 MB

     Dynamical RAM for          h,s,v(r/c):       0.00 MB

     Dynamical RAM for          <psi|beta>:       0.01 MB

     Dynamical RAM for      wfcinit/wfcrot:       0.04 MB

     Dynamical RAM for           addusdens:      10.17 MB

     Dynamical RAM for          addusforce:      10.26 MB

     Dynamical RAM for         addusstress:      10.62 MB

     Estimated static dynamical RAM per process >      23.46 MB

     Estimated max dynamical RAM per process >      34.09 MB

     Estimated total dynamical RAM >       1.60 GB

     Initial potential from superposition of free atoms

     starting charge   15.96031, renormalised to   16.00000
     Starting wfcs are    9 randomized atomic wfcs
     Checking if some PAW data can be deallocated... 
       PAW data deallocated on   24 nodes for type:  1
       PAW data deallocated on   24 nodes for type:  2

     total cpu time spent up to now is        4.0 secs

     Self-consistent Calculation

     iteration #  1     ecut=    70.00 Ry     beta= 0.50
     CG style diagonalization
     ethr =  1.00E-02,  avg # of iterations =  2.0

     Threshold (ethr) on eigenvalues was too large:
     Diagonalizing with lowered threshold

     CG style diagonalization
     ethr =  4.27E-04,  avg # of iterations =  3.2

     total cpu time spent up to now is        4.5 secs

     total energy              =    -794.86640325 Ry
     Harris-Foulkes estimate   =    -794.89396625 Ry
     estimated scf accuracy    <       0.05060130 Ry

     iteration #  2     ecut=    70.00 Ry     beta= 0.50
     CG style diagonalization
     ethr =  3.16E-04,  avg # of iterations =  3.8

     total cpu time spent up to now is        4.8 secs

     total energy              =    -794.87999248 Ry
     Harris-Foulkes estimate   =    -794.87999462 Ry
     estimated scf accuracy    <       0.00292695 Ry

     iteration #  3     ecut=    70.00 Ry     beta= 0.50
     CG style diagonalization
     ethr =  1.83E-05,  avg # of iterations =  5.6

     total cpu time spent up to now is        5.1 secs

     total energy              =    -794.88546798 Ry
     Harris-Foulkes estimate   =    -794.88608613 Ry
     estimated scf accuracy    <       0.00137266 Ry

     iteration #  4     ecut=    70.00 Ry     beta= 0.50
     CG style diagonalization
     ethr =  8.58E-06,  avg # of iterations =  4.2

     total cpu time spent up to now is        5.4 secs

     total energy              =    -794.88603585 Ry
     Harris-Foulkes estimate   =    -794.88598951 Ry
     estimated scf accuracy    <       0.00008838 Ry

     iteration #  5     ecut=    70.00 Ry     beta= 0.50
     CG style diagonalization
     ethr =  5.52E-07,  avg # of iterations =  5.8

     total cpu time spent up to now is        5.7 secs

     total energy              =    -794.88617529 Ry
     Harris-Foulkes estimate   =    -794.88630966 Ry
     estimated scf accuracy    <       0.00017518 Ry

     iteration #  6     ecut=    70.00 Ry     beta= 0.50
     CG style diagonalization
     ethr =  5.52E-07,  avg # of iterations =  4.2

     total cpu time spent up to now is        5.9 secs

     total energy              =    -794.88628570 Ry
     Harris-Foulkes estimate   =    -794.88624580 Ry
     estimated scf accuracy    <       0.00003313 Ry

     iteration #  7     ecut=    70.00 Ry     beta= 0.50
     CG style diagonalization
     ethr =  2.07E-07,  avg # of iterations =  5.2

     total cpu time spent up to now is        6.2 secs

     total energy              =    -794.88625795 Ry
     Harris-Foulkes estimate   =    -794.88635412 Ry
     estimated scf accuracy    <       0.00023864 Ry

     iteration #  8     ecut=    70.00 Ry     beta= 0.50
     CG style diagonalization
     ethr =  2.07E-07,  avg # of iterations =  3.9

     total cpu time spent up to now is        6.5 secs

     total energy              =    -794.88626209 Ry
     Harris-Foulkes estimate   =    -794.88626890 Ry
     estimated scf accuracy    <       0.00007920 Ry

     iteration #  9     ecut=    70.00 Ry     beta= 0.50
     CG style diagonalization
     ethr =  2.07E-07,  avg # of iterations =  3.2

     total cpu time spent up to now is        6.8 secs

     total energy              =    -794.88621228 Ry
     Harris-Foulkes estimate   =    -794.88626497 Ry
     estimated scf accuracy    <       0.00006402 Ry

     iteration # 10     ecut=    70.00 Ry     beta= 0.50
     CG style diagonalization
     ethr =  2.07E-07,  avg # of iterations =  3.8

     total cpu time spent up to now is        7.1 secs

     total energy              =    -794.88622879 Ry
     Harris-Foulkes estimate   =    -794.88625892 Ry
     estimated scf accuracy    <       0.00004282 Ry

     iteration # 11     ecut=    70.00 Ry     beta= 0.50
     CG style diagonalization
     ethr =  2.07E-07,  avg # of iterations =  3.9

     total cpu time spent up to now is        7.4 secs

     total energy              =    -794.88624626 Ry
     Harris-Foulkes estimate   =    -794.88624866 Ry
     estimated scf accuracy    <       0.00000545 Ry

     iteration # 12     ecut=    70.00 Ry     beta= 0.50
     CG style diagonalization
     ethr =  3.41E-08,  avg # of iterations =  3.7

     total cpu time spent up to now is        7.6 secs

     total energy              =    -794.88624743 Ry
     Harris-Foulkes estimate   =    -794.88624760 Ry
     estimated scf accuracy    <       0.00000178 Ry

     iteration # 13     ecut=    70.00 Ry     beta= 0.50
     CG style diagonalization
     ethr =  1.11E-08,  avg # of iterations =  4.2

     total cpu time spent up to now is        7.9 secs

     End of self-consistent calculation

          k = 0.0000 0.0000 0.0000 (  6763 PWs)   bands (ev):

   -17.8872  -7.8233  -4.5927  -4.5927  -4.5927   2.6122   2.6122   2.6122

     occupation numbers 
     1.0000   1.0000   1.0000   1.0000   1.0000   1.0000   1.0000   1.0000

          k = 0.0000 0.0000-0.5000 (  6816 PWs)   bands (ev):

   -17.8690  -7.8293  -4.7136  -4.5449  -4.5449   1.2871   2.4999   2.4999

     occupation numbers 
     1.0000   1.0000   1.0000   1.0000   1.0000   1.0000   1.0000   1.0000

          k = 0.0000-0.5000-0.5000 (  6784 PWs)   bands (ev):

   -17.8524  -7.6775  -4.8845  -4.8845  -4.5135   1.8910   1.8910   2.7098

     occupation numbers 
     1.0000   1.0000   1.0000   1.0000   1.0000   1.0000   1.0000   1.0000

          k =-0.5000-0.5000-0.5000 (  6776 PWs)   bands (ev):

   -17.8365  -7.5913  -4.8022  -4.8022  -4.8022   1.5454   1.5454   1.5454

     occupation numbers 
     1.0000   1.0000   1.0000   1.0000   1.0000   1.0000   1.0000   1.0000

     highest occupied level (ev):     2.7098

!    total energy              =    -794.88624745 Ry
     Harris-Foulkes estimate   =    -794.88624830 Ry
     estimated scf accuracy    <       0.00000097 Ry

     total all-electron energy =    -29807.052252 Ry

     The total energy is the sum of the following terms:

     one-electron contribution =      -3.97540031 Ry
     hartree contribution      =       8.76386999 Ry
     xc contribution           =     -36.98495422 Ry
     ewald contribution        =     -53.30014088 Ry
     one-center paw contrib.   =    -709.38962203 Ry
      -> PAW hartree energy AE =      25.64277867 Ry
      -> PAW hartree energy PS =     -25.53327768 Ry
      -> PAW xc energy AE      =    -383.53105427 Ry
      -> PAW xc energy PS      =      20.51593764 Ry
      -> total E_H with PAW    =       8.87337099 Ry
      -> total E_XC with PAW   =    -400.00007084 Ry

     convergence has been achieved in  13 iterations

     Forces acting on atoms (cartesian axes, Ry/au):

     atom    1 type  1   force =     0.00000000    0.00000000   -0.00000000
     atom    2 type  2   force =     0.00000000    0.00000000    0.00000000
     The non-local contrib.  to forces
     atom    1 type  1   force =     0.00000000    0.00000000    0.00000000
     atom    2 type  2   force =     0.00000000    0.00000000    0.00000000
     The ionic contribution  to forces
     atom    1 type  1   force =    -0.00000000   -0.00000000   -0.00000000
     atom    2 type  2   force =     0.00000000    0.00000000    0.00000000
     The local contribution  to forces
     atom    1 type  1   force =     0.00000000   -0.00000000    0.00000000
     atom    2 type  2   force =     0.00000000    0.00000000    0.00000000
     The core correction contribution to forces
     atom    1 type  1   force =    -0.00000000   -0.00000000   -0.00000000
     atom    2 type  2   force =    -0.00000000   -0.00000000   -0.00000000
     The Hubbard contrib.    to forces
     atom    1 type  1   force =     0.00000000    0.00000000    0.00000000
     atom    2 type  2   force =     0.00000000    0.00000000    0.00000000
     The SCF correction term to forces
     atom    1 type  1   force =     0.00000000    0.00000000   -0.00000000
     atom    2 type  2   force =     0.00000000    0.00000000   -0.00000000

     Total force =     0.000000     Total SCF correction =     0.000000


     Computing stress (Cartesian axis) and pressure

          total   stress  (Ry/bohr**3)                   (kbar)     P=    7.61
   0.00005170   0.00000000   0.00000000          7.61      0.00      0.00
   0.00000000   0.00005170   0.00000000          0.00      7.61      0.00
   0.00000000   0.00000000   0.00005170          0.00      0.00      7.61

     kinetic stress (kbar)   3021.67      0.00      0.00
                                0.00   3021.67      0.00
                                0.00      0.00   3021.67

     local   stress (kbar)  -1091.20     -0.00     -0.00
                               -0.00  -1091.20      0.00
                               -0.00      0.00  -1091.20

     nonloc. stress (kbar)   2495.46      0.00      0.00
                                0.00   2495.46      0.00
                                0.00      0.00   2495.46

     hartree stress (kbar)    627.18     -0.00      0.00
                               -0.00    627.18     -0.00
                                0.00     -0.00    627.18

     exc-cor stress (kbar)   4362.35     -0.00      0.00
                               -0.00   4362.35     -0.00
                                0.00     -0.00   4362.35

     corecor stress (kbar)  -5593.48      0.00     -0.00
                                0.00  -5593.48     -0.00
                               -0.00     -0.00  -5593.48

     ewald   stress (kbar)  -3814.38      0.00      0.00
                                0.00  -3814.38      0.00
                                0.00      0.00  -3814.38

     hubbard stress (kbar)      0.00      0.00      0.00
                                0.00      0.00      0.00
                                0.00      0.00      0.00

     london  stress (kbar)      0.00      0.00      0.00
                                0.00      0.00      0.00
                                0.00      0.00      0.00

     DFT-D3  stress (kbar)      0.00      0.00      0.00
                                0.00      0.00      0.00
                                0.00      0.00      0.00

     XDM     stress (kbar)      0.00      0.00      0.00
                                0.00      0.00      0.00
                                0.00      0.00      0.00

     dft-nl  stress (kbar)      0.00      0.00      0.00
                                0.00      0.00      0.00
                                0.00      0.00      0.00

     TS-vdW  stress (kbar)      0.00      0.00      0.00
                                0.00      0.00      0.00
                                0.00      0.00      0.00



     BFGS Geometry Optimization

     number of scf cycles    =   1
     number of bfgs steps    =   0

     enthalpy new            =    -794.8862474491 Ry

     new trust radius        =       0.0067665978 bohr
     new conv_thr            =       0.0000010000 Ry

     new unit-cell volume =    687.84988 a.u.^3 (   101.92883 Ang^3 )
     density =      4.23244 g/cm^3

CELL_PARAMETERS (angstrom)
   4.671241848   0.000000000   0.000000000
   0.000000000   4.671241848   0.000000000
   0.000000000   0.000000000   4.671241848

ATOMIC_POSITIONS (alat)
Cs       0.000000000   0.000000000  -0.000000000
I        0.500646257   0.500646257   0.500646257



     Writing output data file CsSnI3.save/
     NEW-OLD atomic charge density approx. for the potential
     extrapolated charge   16.06173, renormalised to   16.00000

     total cpu time spent up to now is        8.9 secs

     Self-consistent Calculation

     iteration #  1     ecut=    70.00 Ry     beta= 0.50
     CG style diagonalization
     ethr =  1.00E-06,  avg # of iterations =  2.6

     total cpu time spent up to now is        9.2 secs

     total energy              =    -794.88625890 Ry
     Harris-Foulkes estimate   =    -794.88948012 Ry
     estimated scf accuracy    <       0.00006001 Ry

     iteration #  2     ecut=    70.00 Ry     beta= 0.50
     CG style diagonalization
     ethr =  3.75E-07,  avg # of iterations =  4.2

     total cpu time spent up to now is        9.4 secs

     total energy              =    -794.88633712 Ry
     Harris-Foulkes estimate   =    -794.88634178 Ry
     estimated scf accuracy    <       0.00000884 Ry

     iteration #  3     ecut=    70.00 Ry     beta= 0.50
     CG style diagonalization
     ethr =  5.52E-08,  avg # of iterations =  5.8

     total cpu time spent up to now is        9.7 secs

     total energy              =    -794.88637389 Ry
     Harris-Foulkes estimate   =    -794.88638058 Ry
     estimated scf accuracy    <       0.00002225 Ry

     iteration #  4     ecut=    70.00 Ry     beta= 0.50
     CG style diagonalization
     ethr =  5.52E-08,  avg # of iterations =  3.5

     total cpu time spent up to now is       10.0 secs

     total energy              =    -794.88637210 Ry
     Harris-Foulkes estimate   =    -794.88637561 Ry
     estimated scf accuracy    <       0.00001102 Ry

     iteration #  5     ecut=    70.00 Ry     beta= 0.50
     CG style diagonalization
     ethr =  5.52E-08,  avg # of iterations =  3.3

     total cpu time spent up to now is       10.3 secs

     total energy              =    -794.88637037 Ry
     Harris-Foulkes estimate   =    -794.88637299 Ry
     estimated scf accuracy    <       0.00000408 Ry

     iteration #  6     ecut=    70.00 Ry     beta= 0.50
     CG style diagonalization
     ethr =  2.55E-08,  avg # of iterations =  4.6

     total cpu time spent up to now is       10.6 secs

     total energy              =    -794.88637371 Ry
     Harris-Foulkes estimate   =    -794.88637299 Ry
     estimated scf accuracy    <       0.00000129 Ry

     iteration #  7     ecut=    70.00 Ry     beta= 0.50
     CG style diagonalization
     ethr =  8.07E-09,  avg # of iterations =  5.4

     total cpu time spent up to now is       10.8 secs

     total energy              =    -794.88637960 Ry
     Harris-Foulkes estimate   =    -794.88637662 Ry
     estimated scf accuracy    <       0.00000687 Ry

     iteration #  8     ecut=    70.00 Ry     beta= 0.50
     CG style diagonalization
     ethr =  8.07E-09,  avg # of iterations =  4.1

     total cpu time spent up to now is       11.1 secs

     total energy              =    -794.88637890 Ry
     Harris-Foulkes estimate   =    -794.88638004 Ry
     estimated scf accuracy    <       0.00001349 Ry

     iteration #  9     ecut=    70.00 Ry     beta= 0.50
     CG style diagonalization
     ethr =  8.07E-09,  avg # of iterations =  3.1

     total cpu time spent up to now is       11.4 secs

     total energy              =    -794.88637668 Ry
     Harris-Foulkes estimate   =    -794.88637897 Ry
     estimated scf accuracy    <       0.00001174 Ry

     iteration # 10     ecut=    70.00 Ry     beta= 0.50
     CG style diagonalization
     ethr =  8.07E-09,  avg # of iterations =  3.1

     total cpu time spent up to now is       11.7 secs

     total energy              =    -794.88637473 Ry
     Harris-Foulkes estimate   =    -794.88637674 Ry
     estimated scf accuracy    <       0.00000799 Ry

     iteration # 11     ecut=    70.00 Ry     beta= 0.50
     CG style diagonalization
     ethr =  8.07E-09,  avg # of iterations =  3.4

     total cpu time spent up to now is       11.9 secs

     total energy              =    -794.88637383 Ry
     Harris-Foulkes estimate   =    -794.88637487 Ry
     estimated scf accuracy    <       0.00000442 Ry

     iteration # 12     ecut=    70.00 Ry     beta= 0.50
     CG style diagonalization
     ethr =  8.07E-09,  avg # of iterations =  3.6

     total cpu time spent up to now is       12.2 secs

     total energy              =    -794.88637344 Ry
     Harris-Foulkes estimate   =    -794.88637405 Ry
     estimated scf accuracy    <       0.00000220 Ry

     iteration # 13     ecut=    70.00 Ry     beta= 0.50
     CG style diagonalization
     ethr =  8.07E-09,  avg # of iterations =  3.8

     total cpu time spent up to now is       12.5 secs

     End of self-consistent calculation

          k = 0.0000 0.0000 0.0000 (  6763 PWs)   bands (ev):

   -17.9237  -7.8425  -4.6297  -4.6297  -4.6297   2.5861   2.5861   2.5861

     occupation numbers 
     1.0000   1.0000   1.0000   1.0000   1.0000   1.0000   1.0000   1.0000

          k = 0.0000 0.0000-0.4994 (  6816 PWs)   bands (ev):

   -17.9059  -7.8481  -4.7498  -4.5826  -4.5826   1.2691   2.4758   2.4758

     occupation numbers 
     1.0000   1.0000   1.0000   1.0000   1.0000   1.0000   1.0000   1.0000

          k = 0.0000-0.4994-0.4994 (  6784 PWs)   bands (ev):

   -17.8895  -7.6981  -4.9176  -4.9176  -4.5517   1.8678   1.8678   2.6842

     occupation numbers 
     1.0000   1.0000   1.0000   1.0000   1.0000   1.0000   1.0000   1.0000

          k =-0.4994-0.4994-0.4994 (  6776 PWs)   bands (ev):

   -17.8739  -7.6130  -4.8368  -4.8368  -4.8368   1.5275   1.5275   1.5275

     occupation numbers 
     1.0000   1.0000   1.0000   1.0000   1.0000   1.0000   1.0000   1.0000

     highest occupied level (ev):     2.6842

!    total energy              =    -794.88637293 Ry
     Harris-Foulkes estimate   =    -794.88637363 Ry
     estimated scf accuracy    <       0.00000088 Ry

     total all-electron energy =    -29807.052377 Ry

     The total energy is the sum of the following terms:

     one-electron contribution =      -4.07748198 Ry
     hartree contribution      =       8.79291367 Ry
     xc contribution           =     -36.98173985 Ry
     ewald contribution        =     -53.23133867 Ry
     one-center paw contrib.   =    -709.38872610 Ry
      -> PAW hartree energy AE =      25.64584236 Ry
      -> PAW hartree energy PS =     -25.53646577 Ry
      -> PAW xc energy AE      =    -383.53089813 Ry
      -> PAW xc energy PS      =      20.51616580 Ry
      -> total E_H with PAW    =       8.90229026 Ry
      -> total E_XC with PAW   =    -399.99647218 Ry

     convergence has been achieved in  13 iterations

     Forces acting on atoms (cartesian axes, Ry/au):

     atom    1 type  1   force =     0.00000000   -0.00000000    0.00000000
     atom    2 type  2   force =     0.00000000    0.00000000    0.00000000
     The non-local contrib.  to forces
     atom    1 type  1   force =     0.00000000    0.00000000    0.00000000
     atom    2 type  2   force =     0.00000000    0.00000000    0.00000000
     The ionic contribution  to forces
     atom    1 type  1   force =    -0.00000000   -0.00000000   -0.00000000
     atom    2 type  2   force =     0.00000000    0.00000000    0.00000000
     The local contribution  to forces
     atom    1 type  1   force =     0.00000000   -0.00000000   -0.00000000
     atom    2 type  2   force =     0.00000000    0.00000000    0.00000000
     The core correction contribution to forces
     atom    1 type  1   force =    -0.00000000    0.00000000   -0.00000000
     atom    2 type  2   force =    -0.00000000   -0.00000000   -0.00000000
     The Hubbard contrib.    to forces
     atom    1 type  1   force =     0.00000000    0.00000000    0.00000000
     atom    2 type  2   force =     0.00000000    0.00000000    0.00000000
     The SCF correction term to forces
     atom    1 type  1   force =    -0.00000000   -0.00000000    0.00000000
     atom    2 type  2   force =     0.00000000   -0.00000000    0.00000000

     Total force =     0.000000     Total SCF correction =     0.000000


     Computing stress (Cartesian axis) and pressure

          total   stress  (Ry/bohr**3)                   (kbar)     P=    6.06
   0.00004123   0.00000000   0.00000000          6.06      0.00      0.00
   0.00000000   0.00004123   0.00000000          0.00      6.06      0.00
   0.00000000   0.00000000   0.00004123          0.00      0.00      6.06

     kinetic stress (kbar)   3008.68      0.00      0.00
                                0.00   3008.68      0.00
                                0.00      0.00   3008.68

     local   stress (kbar)  -1093.77      0.00     -0.00
                                0.00  -1093.77     -0.00
                               -0.00     -0.00  -1093.77

     nonloc. stress (kbar)   2485.12      0.00      0.00
                                0.00   2485.12      0.00
                                0.00      0.00   2485.12

     hartree stress (kbar)    626.82      0.00      0.00
                                0.00    626.82     -0.00
                                0.00     -0.00    626.82

     exc-cor stress (kbar)   4345.60      0.00      0.00
                                0.00   4345.60      0.00
                                0.00      0.00   4345.60

     corecor stress (kbar)  -5571.65     -0.00     -0.00
                               -0.00  -5571.65     -0.00
                               -0.00     -0.00  -5571.65

     ewald   stress (kbar)  -3794.72      0.00      0.00
                                0.00  -3794.72      0.00
                                0.00      0.00  -3794.72

     hubbard stress (kbar)      0.00      0.00      0.00
                                0.00      0.00      0.00
                                0.00      0.00      0.00

     london  stress (kbar)      0.00      0.00      0.00
                                0.00      0.00      0.00
                                0.00      0.00      0.00

     DFT-D3  stress (kbar)      0.00      0.00      0.00
                                0.00      0.00      0.00
                                0.00      0.00      0.00

     XDM     stress (kbar)      0.00      0.00      0.00
                                0.00      0.00      0.00
                                0.00      0.00      0.00

     dft-nl  stress (kbar)      0.00      0.00      0.00
                                0.00      0.00      0.00
                                0.00      0.00      0.00

     TS-vdW  stress (kbar)      0.00      0.00      0.00
                                0.00      0.00      0.00
                                0.00      0.00      0.00



     number of scf cycles    =   2
     number of bfgs steps    =   1

     enthalpy old            =    -794.8862474491 Ry
     enthalpy new            =    -794.8863729343 Ry

     CASE: enthalpy_new < enthalpy_old

     new trust radius        =       0.0074480662 bohr
     new conv_thr            =       0.0000000100 Ry

     new unit-cell volume =    690.78414 a.u.^3 (   102.36365 Ang^3 )
     density =      4.21447 g/cm^3

CELL_PARAMETERS (angstrom)
   4.677874681   0.000000000   0.000000000
   0.000000000   4.677874681   0.000000000
   0.000000000   0.000000000   4.677874681

ATOMIC_POSITIONS (alat)
Cs       0.000000000  -0.000000000  -0.000000000
I        0.501357139   0.501357139   0.501357139



     Writing output data file CsSnI3.save/
     NEW-OLD atomic charge density approx. for the potential
     extrapolated charge   16.06779, renormalised to   16.00000

     total cpu time spent up to now is       13.3 secs

     Self-consistent Calculation

     iteration #  1     ecut=    70.00 Ry     beta= 0.50
     CG style diagonalization
     ethr =  1.00E-06,  avg # of iterations =  2.8

     total cpu time spent up to now is       13.6 secs

     total energy              =    -794.88635944 Ry
     Harris-Foulkes estimate   =    -794.88959449 Ry
     estimated scf accuracy    <       0.00006168 Ry

     iteration #  2     ecut=    70.00 Ry     beta= 0.50
     CG style diagonalization
     ethr =  3.86E-07,  avg # of iterations =  4.5

     total cpu time spent up to now is       13.9 secs

     total energy              =    -794.88644867 Ry
     Harris-Foulkes estimate   =    -794.88645465 Ry
     estimated scf accuracy    <       0.00001129 Ry

     iteration #  3     ecut=    70.00 Ry     beta= 0.50
     CG style diagonalization
     ethr =  7.06E-08,  avg # of iterations =  5.9

     total cpu time spent up to now is       14.2 secs

     total energy              =    -794.88650392 Ry
     Harris-Foulkes estimate   =    -794.88651413 Ry
     estimated scf accuracy    <       0.00003422 Ry

     iteration #  4     ecut=    70.00 Ry     beta= 0.50
     CG style diagonalization
     ethr =  7.06E-08,  avg # of iterations =  3.4

     total cpu time spent up to now is       14.4 secs

     total energy              =    -794.88649869 Ry
     Harris-Foulkes estimate   =    -794.88650553 Ry
     estimated scf accuracy    <       0.00001714 Ry

     iteration #  5     ecut=    70.00 Ry     beta= 0.50
     CG style diagonalization
     ethr =  7.06E-08,  avg # of iterations =  3.6

     total cpu time spent up to now is       14.7 secs

     total energy              =    -794.88649733 Ry
     Harris-Foulkes estimate   =    -794.88650018 Ry
     estimated scf accuracy    <       0.00000471 Ry

     iteration #  6     ecut=    70.00 Ry     beta= 0.50
     CG style diagonalization
     ethr =  2.95E-08,  avg # of iterations =  5.4

     total cpu time spent up to now is       15.0 secs

     total energy              =    -794.88650340 Ry
     Harris-Foulkes estimate   =    -794.88650375 Ry
     estimated scf accuracy    <       0.00000602 Ry

     iteration #  7     ecut=    70.00 Ry     beta= 0.50
     CG style diagonalization
     ethr =  2.95E-08,  avg # of iterations =  4.1

     total cpu time spent up to now is       15.3 secs

     total energy              =    -794.88650359 Ry
     Harris-Foulkes estimate   =    -794.88650534 Ry
     estimated scf accuracy    <       0.00000802 Ry

     iteration #  8     ecut=    70.00 Ry     beta= 0.50
     CG style diagonalization
     ethr =  2.95E-08,  avg # of iterations =  3.1

     total cpu time spent up to now is       15.5 secs

     total energy              =    -794.88649976 Ry
     Harris-Foulkes estimate   =    -794.88650374 Ry
     estimated scf accuracy    <       0.00000531 Ry

     iteration #  9     ecut=    70.00 Ry     beta= 0.50
     CG style diagonalization
     ethr =  2.95E-08,  avg # of iterations =  4.0

     total cpu time spent up to now is       15.8 secs

     total energy              =    -794.88650573 Ry
     Harris-Foulkes estimate   =    -794.88650168 Ry
     estimated scf accuracy    <       0.00000103 Ry

     iteration # 10     ecut=    70.00 Ry     beta= 0.50
     CG style diagonalization
     ethr =  6.45E-09,  avg # of iterations =  7.1

     total cpu time spent up to now is       16.1 secs

     total energy              =    -794.88650621 Ry
     Harris-Foulkes estimate   =    -794.88650984 Ry
     estimated scf accuracy    <       0.00001754 Ry

     iteration # 11     ecut=    70.00 Ry     beta= 0.50
     CG style diagonalization
     ethr =  6.45E-09,  avg # of iterations =  4.2

     total cpu time spent up to now is       16.4 secs

     total energy              =    -794.88649916 Ry
     Harris-Foulkes estimate   =    -794.88650653 Ry
     estimated scf accuracy    <       0.00001130 Ry

     iteration # 12     ecut=    70.00 Ry     beta= 0.50
     CG style diagonalization
     ethr =  6.45E-09,  avg # of iterations =  4.0

     total cpu time spent up to now is       16.7 secs

     total energy              =    -794.88650118 Ry
     Harris-Foulkes estimate   =    -794.88650118 Ry
     estimated scf accuracy    <       0.00000001 Ry

     iteration # 13     ecut=    70.00 Ry     beta= 0.50
     CG style diagonalization
     ethr =  6.92E-11,  avg # of iterations = 10.1

     total cpu time spent up to now is       17.0 secs

     total energy              =    -794.88650219 Ry
     Harris-Foulkes estimate   =    -794.88650226 Ry
     estimated scf accuracy    <       0.00000044 Ry

     iteration # 14     ecut=    70.00 Ry     beta= 0.50
     CG style diagonalization
     ethr =  6.92E-11,  avg # of iterations =  4.5

     total cpu time spent up to now is       17.3 secs

     total energy              =    -794.88650360 Ry
     Harris-Foulkes estimate   =    -794.88650220 Ry
     estimated scf accuracy    <       0.00000035 Ry

     iteration # 15     ecut=    70.00 Ry     beta= 0.50
     CG style diagonalization
     ethr =  6.92E-11,  avg # of iterations =  4.8

     total cpu time spent up to now is       17.6 secs

     total energy              =    -794.88650327 Ry
     Harris-Foulkes estimate   =    -794.88650396 Ry
     estimated scf accuracy    <       0.00000432 Ry

     iteration # 16     ecut=    70.00 Ry     beta= 0.50
     CG style diagonalization
     ethr =  6.92E-11,  avg # of iterations =  6.0

     total cpu time spent up to now is       17.9 secs

     total energy              =    -794.88650218 Ry
     Harris-Foulkes estimate   =    -794.88650333 Ry
     estimated scf accuracy    <       0.00000315 Ry

     iteration # 17     ecut=    70.00 Ry     beta= 0.50
     CG style diagonalization
     ethr =  6.92E-11,  avg # of iterations =  5.1

     total cpu time spent up to now is       18.1 secs

     total energy              =    -794.88650222 Ry
     Harris-Foulkes estimate   =    -794.88650231 Ry
     estimated scf accuracy    <       0.00000080 Ry

     iteration # 18     ecut=    70.00 Ry     beta= 0.50
     CG style diagonalization
     ethr =  6.92E-11,  avg # of iterations =  5.7

     total cpu time spent up to now is       18.4 secs

     total energy              =    -794.88650244 Ry
     Harris-Foulkes estimate   =    -794.88650226 Ry
     estimated scf accuracy    <       0.00000052 Ry

     iteration # 19     ecut=    70.00 Ry     beta= 0.50
     CG style diagonalization
     ethr =  6.92E-11,  avg # of iterations =  4.7

     total cpu time spent up to now is       18.7 secs

     total energy              =    -794.88650288 Ry
     Harris-Foulkes estimate   =    -794.88650245 Ry
     estimated scf accuracy    <       0.00000087 Ry

     iteration # 20     ecut=    70.00 Ry     beta= 0.50
     CG style diagonalization
     ethr =  6.92E-11,  avg # of iterations =  5.1

     total cpu time spent up to now is       19.0 secs

     total energy              =    -794.88650213 Ry
     Harris-Foulkes estimate   =    -794.88650293 Ry
     estimated scf accuracy    <       0.00000193 Ry

     iteration # 21     ecut=    70.00 Ry     beta= 0.50
     CG style diagonalization
     ethr =  6.92E-11,  avg # of iterations =  6.4

     total cpu time spent up to now is       19.3 secs

     total energy              =    -794.88650188 Ry
     Harris-Foulkes estimate   =    -794.88650221 Ry
     estimated scf accuracy    <       0.00000049 Ry

     iteration # 22     ecut=    70.00 Ry     beta= 0.50
     CG style diagonalization
     ethr =  6.92E-11,  avg # of iterations =  6.7

     total cpu time spent up to now is       19.6 secs

     total energy              =    -794.88650185 Ry
     Harris-Foulkes estimate   =    -794.88650246 Ry
     estimated scf accuracy    <       0.00000115 Ry

     iteration # 23     ecut=    70.00 Ry     beta= 0.50
     CG style diagonalization
     ethr =  6.92E-11,  avg # of iterations =  7.0

     total cpu time spent up to now is       19.9 secs

     End of self-consistent calculation

          k = 0.0000 0.0000 0.0000 (  6763 PWs)   bands (ev):

   -17.9654  -7.8712  -4.6711  -4.6711  -4.6711   2.5520   2.5520   2.5520

     occupation numbers 
     1.0000   1.0000   1.0000   1.0000   1.0000   1.0000   1.0000   1.0000

          k = 0.0000 0.0000-0.4986 (  6816 PWs)   bands (ev):

   -17.9479  -7.8761  -4.7907  -4.6249  -4.6249   1.2451   2.4440   2.4440

     occupation numbers 
     1.0000   1.0000   1.0000   1.0000   1.0000   1.0000   1.0000   1.0000

          k = 0.0000-0.4986-0.4986 (  6784 PWs)   bands (ev):

   -17.9318  -7.7285  -4.9548  -4.9548  -4.5944   1.8376   1.8376   2.6503

     occupation numbers 
     1.0000   1.0000   1.0000   1.0000   1.0000   1.0000   1.0000   1.0000

          k =-0.4986-0.4986-0.4986 (  6776 PWs)   bands (ev):

   -17.9166  -7.6446  -4.8756  -4.8756  -4.8756   1.5033   1.5033   1.5033

     occupation numbers 
     1.0000   1.0000   1.0000   1.0000   1.0000   1.0000   1.0000   1.0000

     highest occupied level (ev):     2.6503

!    total energy              =    -794.88650204 Ry
     Harris-Foulkes estimate   =    -794.88650205 Ry
     estimated scf accuracy    <          5.7E-09 Ry

     total all-electron energy =    -29807.052506 Ry

     The total energy is the sum of the following terms:

     one-electron contribution =      -4.19175452 Ry
     hartree contribution      =       8.83157931 Ry
     xc contribution           =     -36.98122817 Ry
     ewald contribution        =     -53.15586111 Ry
     one-center paw contrib.   =    -709.38923755 Ry
      -> PAW hartree energy AE =      25.64200470 Ry
      -> PAW hartree energy PS =     -25.53246116 Ry
      -> PAW xc energy AE      =    -383.53119770 Ry
      -> PAW xc energy PS      =      20.51592084 Ry
      -> total E_H with PAW    =       8.94112285 Ry
      -> total E_XC with PAW   =    -399.99650503 Ry

     convergence has been achieved in  23 iterations

     Forces acting on atoms (cartesian axes, Ry/au):

     atom    1 type  1   force =     0.00000000    0.00000000    0.00000000
     atom    2 type  2   force =     0.00000000    0.00000000   -0.00000000
     The non-local contrib.  to forces
     atom    1 type  1   force =     0.00000000    0.00000000    0.00000000
     atom    2 type  2   force =     0.00000000    0.00000000    0.00000000
     The ionic contribution  to forces
     atom    1 type  1   force =    -0.00000000   -0.00000000   -0.00000000
     atom    2 type  2   force =     0.00000000    0.00000000    0.00000000
     The local contribution  to forces
     atom    1 type  1   force =     0.00000000   -0.00000000   -0.00000000
     atom    2 type  2   force =     0.00000000    0.00000000    0.00000000
     The core correction contribution to forces
     atom    1 type  1   force =     0.00000000    0.00000000    0.00000000
     atom    2 type  2   force =    -0.00000000   -0.00000000   -0.00000000
     The Hubbard contrib.    to forces
     atom    1 type  1   force =     0.00000000    0.00000000    0.00000000
     atom    2 type  2   force =     0.00000000    0.00000000    0.00000000
     The SCF correction term to forces
     atom    1 type  1   force =     0.00000000    0.00000000   -0.00000000
     atom    2 type  2   force =     0.00000000    0.00000000   -0.00000000

     Total force =     0.000000     Total SCF correction =     0.000000


     Computing stress (Cartesian axis) and pressure

          total   stress  (Ry/bohr**3)                   (kbar)     P=    6.26
   0.00004256   0.00000000   0.00000000          6.26      0.00      0.00
   0.00000000   0.00004256   0.00000000          0.00      6.26      0.00
   0.00000000   0.00000000   0.00004256          0.00      0.00      6.26

     kinetic stress (kbar)   2996.19      0.00      0.00
                                0.00   2996.19      0.00
                                0.00      0.00   2996.19

     local   stress (kbar)  -1097.25      0.00     -0.00
                                0.00  -1097.25      0.00
                               -0.00      0.00  -1097.25

     nonloc. stress (kbar)   2474.58      0.00      0.00
                                0.00   2474.58      0.00
                                0.00      0.00   2474.58

     hartree stress (kbar)    626.91      0.00     -0.00
                                0.00    626.91     -0.00
                               -0.00     -0.00    626.91

     exc-cor stress (kbar)   4327.19     -0.00      0.00
                               -0.00   4327.19     -0.00
                                0.00     -0.00   4327.19

     corecor stress (kbar)  -5548.10     -0.00      0.00
                               -0.00  -5548.10     -0.00
                                0.00     -0.00  -5548.10

     ewald   stress (kbar)  -3773.25      0.00      0.00
                                0.00  -3773.25      0.00
                                0.00      0.00  -3773.25

     hubbard stress (kbar)      0.00      0.00      0.00
                                0.00      0.00      0.00
                                0.00      0.00      0.00

     london  stress (kbar)      0.00      0.00      0.00
                                0.00      0.00      0.00
                                0.00      0.00      0.00

     DFT-D3  stress (kbar)      0.00      0.00      0.00
                                0.00      0.00      0.00
                                0.00      0.00      0.00

     XDM     stress (kbar)      0.00      0.00      0.00
                                0.00      0.00      0.00
                                0.00      0.00      0.00

     dft-nl  stress (kbar)      0.00      0.00      0.00
                                0.00      0.00      0.00
                                0.00      0.00      0.00

     TS-vdW  stress (kbar)      0.00      0.00      0.00
                                0.00      0.00      0.00
                                0.00      0.00      0.00



     number of scf cycles    =   3
     number of bfgs steps    =   2

     enthalpy old            =    -794.8863729343 Ry
     enthalpy new            =    -794.8865020449 Ry

     CASE: enthalpy_new < enthalpy_old


     WARNING: bfgs curvature condition failed, Theta= 0.709
     uphill step: resetting bfgs history

     new trust radius        =       0.0055935296 bohr
     new conv_thr            =       0.0000000100 Ry

     new unit-cell volume =    692.99169 a.u.^3 (   102.69077 Ang^3 )
     density =      4.20104 g/cm^3

CELL_PARAMETERS (angstrom)
   4.682852434   0.000000000   0.000000000
   0.000000000   4.682852434   0.000000000
   0.000000000   0.000000000   4.682852434

ATOMIC_POSITIONS (alat)
Cs       0.000000000  -0.000000000   0.000000000
I        0.501890636   0.501890636   0.501890636



     Writing output data file CsSnI3.save/
     NEW-OLD atomic charge density approx. for the potential
     extrapolated charge   16.05084, renormalised to   16.00000

     total cpu time spent up to now is       20.7 secs

     Self-consistent Calculation

     iteration #  1     ecut=    70.00 Ry     beta= 0.50
     CG style diagonalization
     ethr =  1.00E-06,  avg # of iterations =  2.2

     total cpu time spent up to now is       21.0 secs

     total energy              =    -794.88651190 Ry
     Harris-Foulkes estimate   =    -794.88874290 Ry
     estimated scf accuracy    <       0.00004096 Ry

     iteration #  2     ecut=    70.00 Ry     beta= 0.50
     CG style diagonalization
     ethr =  2.56E-07,  avg # of iterations =  4.3

     total cpu time spent up to now is       21.3 secs

     total energy              =    -794.88657426 Ry
     Harris-Foulkes estimate   =    -794.88657947 Ry
     estimated scf accuracy    <       0.00001172 Ry

     iteration #  3     ecut=    70.00 Ry     beta= 0.50
     CG style diagonalization
     ethr =  7.33E-08,  avg # of iterations =  4.9

     total cpu time spent up to now is       21.6 secs

     total energy              =    -794.88659067 Ry
     Harris-Foulkes estimate   =    -794.88659476 Ry
     estimated scf accuracy    <       0.00001141 Ry

     iteration #  4     ecut=    70.00 Ry     beta= 0.50
     CG style diagonalization
     ethr =  7.13E-08,  avg # of iterations =  3.3

     total cpu time spent up to now is       21.8 secs

     total energy              =    -794.88658894 Ry
     Harris-Foulkes estimate   =    -794.88659201 Ry
     estimated scf accuracy    <       0.00000562 Ry

     iteration #  5     ecut=    70.00 Ry     beta= 0.50
     CG style diagonalization
     ethr =  3.51E-08,  avg # of iterations =  3.9

     total cpu time spent up to now is       22.1 secs

     total energy              =    -794.88658984 Ry
     Harris-Foulkes estimate   =    -794.88659014 Ry
     estimated scf accuracy    <       0.00000059 Ry

     iteration #  6     ecut=    70.00 Ry     beta= 0.50
     CG style diagonalization
     ethr =  3.69E-09,  avg # of iterations =  7.3

     total cpu time spent up to now is       22.4 secs

     total energy              =    -794.88659243 Ry
     Harris-Foulkes estimate   =    -794.88659260 Ry
     estimated scf accuracy    <       0.00000141 Ry

     iteration #  7     ecut=    70.00 Ry     beta= 0.50
     CG style diagonalization
     ethr =  3.69E-09,  avg # of iterations =  3.2

     total cpu time spent up to now is       22.7 secs

     total energy              =    -794.88659162 Ry
     Harris-Foulkes estimate   =    -794.88659249 Ry
     estimated scf accuracy    <       0.00000123 Ry

     iteration #  8     ecut=    70.00 Ry     beta= 0.50
     CG style diagonalization
     ethr =  3.69E-09,  avg # of iterations =  4.1

     total cpu time spent up to now is       23.0 secs

     total energy              =    -794.88659208 Ry
     Harris-Foulkes estimate   =    -794.88659197 Ry
     estimated scf accuracy    <       0.00000007 Ry

     iteration #  9     ecut=    70.00 Ry     beta= 0.50
     CG style diagonalization
     ethr =  4.45E-10,  avg # of iterations =  6.5

     total cpu time spent up to now is       23.3 secs

     total energy              =    -794.88659245 Ry
     Harris-Foulkes estimate   =    -794.88659226 Ry
     estimated scf accuracy    <       0.00000057 Ry

     iteration # 10     ecut=    70.00 Ry     beta= 0.50
     CG style diagonalization
     ethr =  4.45E-10,  avg # of iterations =  4.4

     total cpu time spent up to now is       23.6 secs

     total energy              =    -794.88659195 Ry
     Harris-Foulkes estimate   =    -794.88659250 Ry
     estimated scf accuracy    <       0.00000099 Ry

     iteration # 11     ecut=    70.00 Ry     beta= 0.50
     CG style diagonalization
     ethr =  4.45E-10,  avg # of iterations =  5.2

     total cpu time spent up to now is       23.8 secs

     total energy              =    -794.88659206 Ry
     Harris-Foulkes estimate   =    -794.88659204 Ry
     estimated scf accuracy    <       0.00000005 Ry

     iteration # 12     ecut=    70.00 Ry     beta= 0.50
     CG style diagonalization
     ethr =  3.39E-10,  avg # of iterations =  4.3

     total cpu time spent up to now is       24.1 secs

     total energy              =    -794.88659208 Ry
     Harris-Foulkes estimate   =    -794.88659209 Ry
     estimated scf accuracy    <       0.00000005 Ry

     iteration # 13     ecut=    70.00 Ry     beta= 0.50
     CG style diagonalization
     ethr =  3.10E-10,  avg # of iterations =  3.2

     total cpu time spent up to now is       24.4 secs

     total energy              =    -794.88659207 Ry
     Harris-Foulkes estimate   =    -794.88659208 Ry
     estimated scf accuracy    <       0.00000002 Ry

     iteration # 14     ecut=    70.00 Ry     beta= 0.50
     CG style diagonalization
     ethr =  1.36E-10,  avg # of iterations =  3.3

     total cpu time spent up to now is       24.7 secs

     total energy              =    -794.88659207 Ry
     Harris-Foulkes estimate   =    -794.88659207 Ry
     estimated scf accuracy    <       0.00000002 Ry

     iteration # 15     ecut=    70.00 Ry     beta= 0.50
     CG style diagonalization
     ethr =  1.05E-10,  avg # of iterations =  4.1

     total cpu time spent up to now is       24.9 secs

     End of self-consistent calculation

          k = 0.0000 0.0000 0.0000 (  6763 PWs)   bands (ev):

   -17.9941  -7.8913  -4.7001  -4.7001  -4.7001   2.5274   2.5274   2.5274

     occupation numbers 
     1.0000   1.0000   1.0000   1.0000   1.0000   1.0000   1.0000   1.0000

          k = 0.0000 0.0000-0.4981 (  6816 PWs)   bands (ev):

   -17.9768  -7.8957  -4.8194  -4.6545  -4.6545   1.2278   2.4212   2.4212

     occupation numbers 
     1.0000   1.0000   1.0000   1.0000   1.0000   1.0000   1.0000   1.0000

          k = 0.0000-0.4981-0.4981 (  6784 PWs)   bands (ev):

   -17.9610  -7.7498  -4.9809  -4.9809  -4.6244   1.8159   1.8159   2.6259

     occupation numbers 
     1.0000   1.0000   1.0000   1.0000   1.0000   1.0000   1.0000   1.0000

          k =-0.4981-0.4981-0.4981 (  6776 PWs)   bands (ev):

   -17.9460  -7.6668  -4.9028  -4.9028  -4.9028   1.4859   1.4859   1.4859

     occupation numbers 
     1.0000   1.0000   1.0000   1.0000   1.0000   1.0000   1.0000   1.0000

     highest occupied level (ev):     2.6259

!    total energy              =    -794.88659207 Ry
     Harris-Foulkes estimate   =    -794.88659208 Ry
     estimated scf accuracy    <          2.9E-09 Ry

     total all-electron energy =    -29807.052596 Ry

     The total energy is the sum of the following terms:

     one-electron contribution =      -4.27643393 Ry
     hartree contribution      =       8.85820004 Ry
     xc contribution           =     -36.97989912 Ry
     ewald contribution        =     -53.09935778 Ry
     one-center paw contrib.   =    -709.38910128 Ry
      -> PAW hartree energy AE =      25.64061334 Ry
      -> PAW hartree energy PS =     -25.53108679 Ry
      -> PAW xc energy AE      =    -383.53091553 Ry
      -> PAW xc energy PS      =      20.51570498 Ry
      -> total E_H with PAW    =       8.96772659 Ry
      -> total E_XC with PAW   =    -399.99510967 Ry

     convergence has been achieved in  15 iterations

     Forces acting on atoms (cartesian axes, Ry/au):

     atom    1 type  1   force =     0.00000000    0.00000000    0.00000000
     atom    2 type  2   force =     0.00000000    0.00000000    0.00000000
     The non-local contrib.  to forces
     atom    1 type  1   force =     0.00000000    0.00000000    0.00000000
     atom    2 type  2   force =     0.00000000    0.00000000   -0.00000000
     The ionic contribution  to forces
     atom    1 type  1   force =    -0.00000000   -0.00000000   -0.00000000
     atom    2 type  2   force =     0.00000000    0.00000000    0.00000000
     The local contribution  to forces
     atom    1 type  1   force =    -0.00000000    0.00000000    0.00000000
     atom    2 type  2   force =     0.00000000    0.00000000    0.00000000
     The core correction contribution to forces
     atom    1 type  1   force =     0.00000000    0.00000000    0.00000000
     atom    2 type  2   force =    -0.00000000   -0.00000000   -0.00000000
     The Hubbard contrib.    to forces
     atom    1 type  1   force =     0.00000000    0.00000000    0.00000000
     atom    2 type  2   force =     0.00000000    0.00000000    0.00000000
     The SCF correction term to forces
     atom    1 type  1   force =     0.00000000    0.00000000    0.00000000
     atom    2 type  2   force =    -0.00000000   -0.00000000    0.00000000

     Total force =     0.000000     Total SCF correction =     0.000000


     Computing stress (Cartesian axis) and pressure

          total   stress  (Ry/bohr**3)                   (kbar)     P=    5.84
   0.00003971   0.00000000   0.00000000          5.84      0.00      0.00
   0.00000000   0.00003971   0.00000000          0.00      5.84      0.00
   0.00000000   0.00000000   0.00003971          0.00      0.00      5.84

     kinetic stress (kbar)   2986.22      0.00      0.00
                                0.00   2986.22      0.00
                                0.00      0.00   2986.22

     local   stress (kbar)  -1099.56      0.00      0.00
                                0.00  -1099.56     -0.00
                                0.00     -0.00  -1099.56

     nonloc. stress (kbar)   2466.56      0.00      0.00
                                0.00   2466.56      0.00
                                0.00      0.00   2466.56

     hartree stress (kbar)    626.79      0.00      0.00
                                0.00    626.79      0.00
                                0.00      0.00    626.79

     exc-cor stress (kbar)   4313.46     -0.00     -0.00
                               -0.00   4313.46      0.00
                               -0.00      0.00   4313.46

     corecor stress (kbar)  -5530.40      0.00     -0.00
                                0.00  -5530.40     -0.00
                               -0.00     -0.00  -5530.40

     ewald   stress (kbar)  -3757.23      0.00      0.00
                                0.00  -3757.23      0.00
                                0.00      0.00  -3757.23

     hubbard stress (kbar)      0.00      0.00      0.00
                                0.00      0.00      0.00
                                0.00      0.00      0.00

     london  stress (kbar)      0.00      0.00      0.00
                                0.00      0.00      0.00
                                0.00      0.00      0.00

     DFT-D3  stress (kbar)      0.00      0.00      0.00
                                0.00      0.00      0.00
                                0.00      0.00      0.00

     XDM     stress (kbar)      0.00      0.00      0.00
                                0.00      0.00      0.00
                                0.00      0.00      0.00

     dft-nl  stress (kbar)      0.00      0.00      0.00
                                0.00      0.00      0.00
                                0.00      0.00      0.00

     TS-vdW  stress (kbar)      0.00      0.00      0.00
                                0.00      0.00      0.00
                                0.00      0.00      0.00



     number of scf cycles    =   4
     number of bfgs steps    =   3

     enthalpy old            =    -794.8865020449 Ry
     enthalpy new            =    -794.8865920744 Ry

     CASE: enthalpy_new < enthalpy_old


     WARNING: bfgs curvature condition failed, Theta= 0.856
     new trust radius        =       0.0061561554 bohr
     new conv_thr            =       0.0000000100 Ry

     new unit-cell volume =    695.42542 a.u.^3 (   103.05141 Ang^3 )
     density =      4.18634 g/cm^3

CELL_PARAMETERS (angstrom)
   4.688327963   0.000000000   0.000000000
   0.000000000   4.688327963   0.000000000
   0.000000000   0.000000000   4.688327963

ATOMIC_POSITIONS (alat)
Cs       0.000000000  -0.000000000   0.000000000
I        0.502477483   0.502477483   0.502477483



     Writing output data file CsSnI3.save/
     NEW-OLD atomic charge density approx. for the potential
     extrapolated charge   16.05586, renormalised to   16.00000

     total cpu time spent up to now is       25.8 secs

     Self-consistent Calculation

     iteration #  1     ecut=    70.00 Ry     beta= 0.50
     CG style diagonalization
     ethr =  1.00E-06,  avg # of iterations =  2.4

     total cpu time spent up to now is       26.0 secs

     total energy              =    -794.88658772 Ry
     Harris-Foulkes estimate   =    -794.88883398 Ry
     estimated scf accuracy    <       0.00004899 Ry

     iteration #  2     ecut=    70.00 Ry     beta= 0.50
     CG style diagonalization
     ethr =  3.06E-07,  avg # of iterations =  4.2

     total cpu time spent up to now is       26.3 secs

     total energy              =    -794.88666917 Ry
     Harris-Foulkes estimate   =    -794.88667685 Ry
     estimated scf accuracy    <       0.00001814 Ry

     iteration #  3     ecut=    70.00 Ry     beta= 0.50
     CG style diagonalization
     ethr =  1.13E-07,  avg # of iterations =  4.8

     total cpu time spent up to now is       26.6 secs

     total energy              =    -794.88668590 Ry
     Harris-Foulkes estimate   =    -794.88668871 Ry
     estimated scf accuracy    <       0.00001444 Ry

     iteration #  4     ecut=    70.00 Ry     beta= 0.50
     CG style diagonalization
     ethr =  9.02E-08,  avg # of iterations =  3.3

     total cpu time spent up to now is       26.8 secs

     total energy              =    -794.88668147 Ry
     Harris-Foulkes estimate   =    -794.88668703 Ry
     estimated scf accuracy    <       0.00001059 Ry

     iteration #  5     ecut=    70.00 Ry     beta= 0.50
     CG style diagonalization
     ethr =  6.62E-08,  avg # of iterations =  3.7

     total cpu time spent up to now is       27.1 secs

     total energy              =    -794.88668303 Ry
     Harris-Foulkes estimate   =    -794.88668333 Ry
     estimated scf accuracy    <       0.00000124 Ry

     iteration #  6     ecut=    70.00 Ry     beta= 0.50
     CG style diagonalization
     ethr =  7.73E-09,  avg # of iterations =  5.3

     total cpu time spent up to now is       27.4 secs

     total energy              =    -794.88668448 Ry
     Harris-Foulkes estimate   =    -794.88668452 Ry
     estimated scf accuracy    <       0.00000046 Ry

     iteration #  7     ecut=    70.00 Ry     beta= 0.50
     CG style diagonalization
     ethr =  2.89E-09,  avg # of iterations =  4.3

     total cpu time spent up to now is       27.7 secs

     total energy              =    -794.88669044 Ry
     Harris-Foulkes estimate   =    -794.88668474 Ry
     estimated scf accuracy    <       0.00000048 Ry

     iteration #  8     ecut=    70.00 Ry     beta= 0.50
     CG style diagonalization
     ethr =  2.89E-09,  avg # of iterations =  4.6

     total cpu time spent up to now is       28.0 secs

     total energy              =    -794.88668401 Ry
     Harris-Foulkes estimate   =    -794.88669517 Ry
     estimated scf accuracy    <       0.00002390 Ry

     iteration #  9     ecut=    70.00 Ry     beta= 0.50
     CG style diagonalization
[...]
                  (  0.0000000  0.0000000 -1.0000000 )
                  (  1.0000000  0.0000000  0.0000000 )


      isym = 43     inv. 120 deg rotation - cart. axis [1,1,-1]  

 cryst.   s(43) = (     0          0          1      )
                  (    -1          0          0      )
                  (     0          1          0      )

 cart.    s(43) = (  0.0000000 -1.0000000  0.0000000 )
                  (  0.0000000  0.0000000  1.0000000 )
                  (  1.0000000  0.0000000  0.0000000 )


      isym = 44     inv. 120 deg rotation - cart. axis [1,-1,1]  

 cryst.   s(44) = (     0          0         -1      )
                  (     1          0          0      )
                  (     0          1          0      )

 cart.    s(44) = (  0.0000000  1.0000000  0.0000000 )
                  (  0.0000000  0.0000000  1.0000000 )
                  ( -1.0000000  0.0000000  0.0000000 )


      isym = 45     inv. 120 deg rotation - cart. axis [1,1,1]   

 cryst.   s(45) = (     0         -1          0      )
                  (     0          0         -1      )
                  (    -1          0          0      )

 cart.    s(45) = (  0.0000000  0.0000000 -1.0000000 )
                  ( -1.0000000  0.0000000  0.0000000 )
                  (  0.0000000 -1.0000000  0.0000000 )


      isym = 46     inv. 120 deg rotation - cart. axis [-1,1,-1] 

 cryst.   s(46) = (     0          1          0      )
                  (     0          0          1      )
                  (    -1          0          0      )

 cart.    s(46) = (  0.0000000  0.0000000 -1.0000000 )
                  (  1.0000000  0.0000000  0.0000000 )
                  (  0.0000000  1.0000000  0.0000000 )


      isym = 47     inv. 120 deg rotation - cart. axis [1,-1,-1] 

 cryst.   s(47) = (     0          1          0      )
                  (     0          0         -1      )
                  (     1          0          0      )

 cart.    s(47) = (  0.0000000  0.0000000  1.0000000 )
                  (  1.0000000  0.0000000  0.0000000 )
                  (  0.0000000 -1.0000000  0.0000000 )


      isym = 48     inv. 120 deg rotation - cart. axis [-1,-1,1] 

 cryst.   s(48) = (     0         -1          0      )
                  (     0          0          1      )
                  (     1          0          0      )

 cart.    s(48) = (  0.0000000  0.0000000  1.0000000 )
                  ( -1.0000000  0.0000000  0.0000000 )
                  (  0.0000000  1.0000000  0.0000000 )


   Cartesian axes

     site n.     atom                  positions (alat units)
         1           Cs  tau(   1) = (   0.0000000  -0.0000000   0.0000000  )
         2           I   tau(   2) = (   0.5114358   0.5114358   0.5114358  )

   Crystallographic axes

     site n.     atom                  positions (cryst. coord.)
         1           Cs  tau(   1) = (  0.0000000 -0.0000000  0.0000000  )
         2           I   tau(   2) = (  0.5000000  0.5000000  0.5000000  )

     number of k points=     4
                       cart. coord. in units 2pi/alat
        k(    1) = (   0.0000000   0.0000000   0.0000000), wk =   0.2500000
        k(    2) = (   0.0000000   0.0000000  -0.4888199), wk =   0.7500000
        k(    3) = (   0.0000000  -0.4888199  -0.4888199), wk =   0.7500000
        k(    4) = (  -0.4888199  -0.4888199  -0.4888199), wk =   0.2500000

                       cryst. coord.
        k(    1) = (   0.0000000   0.0000000   0.0000000), wk =   0.2500000
        k(    2) = (   0.0000000   0.0000000  -0.5000000), wk =   0.7500000
        k(    3) = (   0.0000000  -0.5000000  -0.5000000), wk =   0.7500000
        k(    4) = (  -0.5000000  -0.5000000  -0.5000000), wk =   0.2500000

     Dense  grid:    57777 G-vectors     FFT dimensions: (  50,  50,  50)

     Dynamical RAM for                 wfc:       0.02 MB

     Dynamical RAM for     wfc (w. buffer):       0.09 MB

     Dynamical RAM for           str. fact:       0.04 MB

     Dynamical RAM for           local pot:       0.02 MB

     Dynamical RAM for          nlocal pot:       0.12 MB

     Dynamical RAM for                qrad:      22.61 MB

     Dynamical RAM for          rho,v,vnew:       0.17 MB

     Dynamical RAM for               rhoin:       0.06 MB

     Dynamical RAM for            rho*nmix:       0.29 MB

     Dynamical RAM for           G-vectors:       0.08 MB

     Dynamical RAM for          h,s,v(r/c):       0.00 MB

     Dynamical RAM for          <psi|beta>:       0.01 MB

     Dynamical RAM for      wfcinit/wfcrot:       0.04 MB

     Dynamical RAM for           addusdens:      10.81 MB

     Dynamical RAM for          addusforce:      10.90 MB

     Dynamical RAM for         addusstress:      11.29 MB

     Estimated static dynamical RAM per process >      23.71 MB

     Estimated max dynamical RAM per process >      35.00 MB

     Estimated total dynamical RAM >       1.64 GB

     Initial potential from superposition of free atoms

     starting charge   15.96031, renormalised to   16.00000
     Starting wfcs are    9 randomized atomic wfcs
     Checking if some PAW data can be deallocated... 
       PAW data deallocated on   24 nodes for type:  1
       PAW data deallocated on   24 nodes for type:  2

     total cpu time spent up to now is       68.7 secs

     Self-consistent Calculation

     iteration #  1     ecut=    70.00 Ry     beta= 0.50
     CG style diagonalization
     ethr =  1.00E-06,  avg # of iterations =  9.5

     total cpu time spent up to now is       69.1 secs

     total energy              =    -794.87836391 Ry
     Harris-Foulkes estimate   =    -794.90179804 Ry
     estimated scf accuracy    <       0.04454013 Ry

     iteration #  2     ecut=    70.00 Ry     beta= 0.50
     CG style diagonalization
     ethr =  2.78E-04,  avg # of iterations =  3.4

     total cpu time spent up to now is       69.4 secs

     total energy              =    -794.88460390 Ry
     Harris-Foulkes estimate   =    -794.88459090 Ry
     estimated scf accuracy    <       0.00290701 Ry

     iteration #  3     ecut=    70.00 Ry     beta= 0.50
     CG style diagonalization
     ethr =  1.82E-05,  avg # of iterations =  5.3

     total cpu time spent up to now is       69.7 secs

     total energy              =    -794.88698068 Ry
     Harris-Foulkes estimate   =    -794.88705645 Ry
     estimated scf accuracy    <       0.00071019 Ry

     iteration #  4     ecut=    70.00 Ry     beta= 0.50
     CG style diagonalization
     ethr =  4.44E-06,  avg # of iterations =  4.0

     total cpu time spent up to now is       70.0 secs

     total energy              =    -794.88725209 Ry
     Harris-Foulkes estimate   =    -794.88721500 Ry
     estimated scf accuracy    <       0.00007401 Ry

     iteration #  5     ecut=    70.00 Ry     beta= 0.50
     CG style diagonalization
     ethr =  4.63E-07,  avg # of iterations =  5.0

     total cpu time spent up to now is       70.3 secs

     total energy              =    -794.88734328 Ry
     Harris-Foulkes estimate   =    -794.88736374 Ry
     estimated scf accuracy    <       0.00003664 Ry

     iteration #  6     ecut=    70.00 Ry     beta= 0.50
     CG style diagonalization
     ethr =  2.29E-07,  avg # of iterations =  4.6

     total cpu time spent up to now is       70.6 secs

     total energy              =    -794.88734743 Ry
     Harris-Foulkes estimate   =    -794.88738121 Ry
     estimated scf accuracy    <       0.00004480 Ry

     iteration #  7     ecut=    70.00 Ry     beta= 0.50
     CG style diagonalization
     ethr =  2.29E-07,  avg # of iterations =  3.8

     total cpu time spent up to now is       70.9 secs

     total energy              =    -794.88735763 Ry
     Harris-Foulkes estimate   =    -794.88735958 Ry
     estimated scf accuracy    <       0.00000343 Ry

     iteration #  8     ecut=    70.00 Ry     beta= 0.50
     CG style diagonalization
     ethr =  2.15E-08,  avg # of iterations =  5.6

     total cpu time spent up to now is       71.2 secs

     total energy              =    -794.88736380 Ry
     Harris-Foulkes estimate   =    -794.88736396 Ry
     estimated scf accuracy    <       0.00000045 Ry

     iteration #  9     ecut=    70.00 Ry     beta= 0.50
     CG style diagonalization
     ethr =  2.78E-09,  avg # of iterations =  6.1

     total cpu time spent up to now is       71.5 secs

     total energy              =    -794.88736466 Ry
     Harris-Foulkes estimate   =    -794.88736508 Ry
     estimated scf accuracy    <       0.00000059 Ry

     iteration # 10     ecut=    70.00 Ry     beta= 0.50
     CG style diagonalization
     ethr =  2.78E-09,  avg # of iterations =  4.6

     total cpu time spent up to now is       71.8 secs

     total energy              =    -794.88736512 Ry
     Harris-Foulkes estimate   =    -794.88736511 Ry
     estimated scf accuracy    <       0.00000010 Ry

     iteration # 11     ecut=    70.00 Ry     beta= 0.50
     CG style diagonalization
     ethr =  6.31E-10,  avg # of iterations =  5.2

     total cpu time spent up to now is       72.1 secs

     total energy              =    -794.88736520 Ry
     Harris-Foulkes estimate   =    -794.88736523 Ry
     estimated scf accuracy    <       0.00000009 Ry

     iteration # 12     ecut=    70.00 Ry     beta= 0.50
     CG style diagonalization
     ethr =  5.46E-10,  avg # of iterations =  3.5

     total cpu time spent up to now is       72.4 secs

     total energy              =    -794.88736521 Ry
     Harris-Foulkes estimate   =    -794.88736521 Ry
     estimated scf accuracy    <       0.00000004 Ry

     iteration # 13     ecut=    70.00 Ry     beta= 0.50
     CG style diagonalization
     ethr =  2.73E-10,  avg # of iterations =  4.2

     total cpu time spent up to now is       72.7 secs

     total energy              =    -794.88736522 Ry
     Harris-Foulkes estimate   =    -794.88736522 Ry
     estimated scf accuracy    <       0.00000004 Ry

     iteration # 14     ecut=    70.00 Ry     beta= 0.50
     CG style diagonalization
     ethr =  2.26E-10,  avg # of iterations =  3.1

     total cpu time spent up to now is       73.0 secs

     total energy              =    -794.88736521 Ry
     Harris-Foulkes estimate   =    -794.88736522 Ry
     estimated scf accuracy    <       0.00000003 Ry

     iteration # 15     ecut=    70.00 Ry     beta= 0.50
     CG style diagonalization
     ethr =  1.79E-10,  avg # of iterations =  3.4

     total cpu time spent up to now is       73.2 secs

     End of self-consistent calculation

          k = 0.0000 0.0000 0.0000 (  7153 PWs)   bands (ev):

   -18.4945  -8.2353  -5.2060  -5.2060  -5.2060   2.1098   2.1098   2.1098

     occupation numbers 
     1.0000   1.0000   1.0000   1.0000   1.0000   1.0000   1.0000   1.0000

          k = 0.0000 0.0000-0.4888 (  7224 PWs)   bands (ev):

   -18.4813  -8.2327  -5.3173  -5.1700  -5.1700   0.9339   2.0304   2.0304

     occupation numbers 
     1.0000   1.0000   1.0000   1.0000   1.0000   1.0000   1.0000   1.0000

          k = 0.0000-0.4888-0.4888 (  7248 PWs)   bands (ev):

   -18.4690  -8.1143  -5.4382  -5.4382  -5.1454   1.4483   1.4483   2.2106

     occupation numbers 
     1.0000   1.0000   1.0000   1.0000   1.0000   1.0000   1.0000   1.0000

          k =-0.4888-0.4888-0.4888 (  7208 PWs)   bands (ev):

   -18.4573  -8.0455  -5.3779  -5.3779  -5.3779   1.1881   1.1881   1.1881

     occupation numbers 
     1.0000   1.0000   1.0000   1.0000   1.0000   1.0000   1.0000   1.0000

     highest occupied level (ev):     2.2106

!    total energy              =    -794.88736521 Ry
     Harris-Foulkes estimate   =    -794.88736521 Ry
     estimated scf accuracy    <          8.0E-09 Ry

     total all-electron energy =    -29807.053369 Ry

     The total energy is the sum of the following terms:

     one-electron contribution =      -5.76936437 Ry
     hartree contribution      =       9.33612087 Ry
     xc contribution           =     -36.95849959 Ry
     ewald contribution        =     -52.10833476 Ry
     one-center paw contrib.   =    -709.38728737 Ry
      -> PAW hartree energy AE =      25.60963775 Ry
      -> PAW hartree energy PS =     -25.50019477 Ry
      -> PAW xc energy AE      =    -383.52583553 Ry
      -> PAW xc energy PS      =      20.51121977 Ry
      -> total E_H with PAW    =       9.44556385 Ry
      -> total E_XC with PAW   =    -399.97311535 Ry

     convergence has been achieved in  15 iterations

     Forces acting on atoms (cartesian axes, Ry/au):

     atom    1 type  1   force =     0.00000000    0.00000000    0.00000000
     atom    2 type  2   force =     0.00000000    0.00000000    0.00000000
     The non-local contrib.  to forces
     atom    1 type  1   force =     0.00000000    0.00000000   -0.00000000
     atom    2 type  2   force =     0.00000000    0.00000000    0.00000000
     The ionic contribution  to forces
     atom    1 type  1   force =    -0.00000000   -0.00000000   -0.00000000
     atom    2 type  2   force =     0.00000000    0.00000000    0.00000000
     The local contribution  to forces
     atom    1 type  1   force =     0.00000000    0.00000000    0.00000000
     atom    2 type  2   force =     0.00000000    0.00000000    0.00000000
     The core correction contribution to forces
     atom    1 type  1   force =     0.00000000    0.00000000    0.00000000
     atom    2 type  2   force =    -0.00000000   -0.00000000   -0.00000000
     The Hubbard contrib.    to forces
     atom    1 type  1   force =     0.00000000    0.00000000    0.00000000
     atom    2 type  2   force =     0.00000000    0.00000000    0.00000000
     The SCF correction term to forces
     atom    1 type  1   force =     0.00000000    0.00000000    0.00000000
     atom    2 type  2   force =    -0.00000000    0.00000000   -0.00000000

     Total force =     0.000000     Total SCF correction =     0.000000


     Computing stress (Cartesian axis) and pressure

          total   stress  (Ry/bohr**3)                   (kbar)     P=    0.05
   0.00000034   0.00000000   0.00000000          0.05      0.00      0.00
   0.00000000   0.00000034   0.00000000          0.00      0.05      0.00
   0.00000000   0.00000000   0.00000034          0.00      0.00      0.05

     kinetic stress (kbar)   2816.21      0.00      0.00
                                0.00   2816.21      0.00
                                0.00      0.00   2816.21

     local   stress (kbar)  -1136.36     -0.00      0.00
                               -0.00  -1136.36      0.00
                                0.00      0.00  -1136.36

     nonloc. stress (kbar)   2329.17      0.00      0.00
                                0.00   2329.17      0.00
                                0.00      0.00   2329.17

     hartree stress (kbar)    624.31     -0.00     -0.00
                               -0.00    624.31      0.00
                               -0.00      0.00    624.31

     exc-cor stress (kbar)   4077.36      0.00      0.00
                                0.00   4077.36     -0.00
                                0.00     -0.00   4077.36

     corecor stress (kbar)  -5226.16     -0.00     -0.00
                               -0.00  -5226.16      0.00
                               -0.00      0.00  -5226.16

     ewald   stress (kbar)  -3484.49      0.00     -0.00
                                0.00  -3484.49     -0.00
                               -0.00     -0.00  -3484.49

     hubbard stress (kbar)      0.00      0.00      0.00
                                0.00      0.00      0.00
                                0.00      0.00      0.00

     london  stress (kbar)      0.00      0.00      0.00
                                0.00      0.00      0.00
                                0.00      0.00      0.00

     DFT-D3  stress (kbar)      0.00      0.00      0.00
                                0.00      0.00      0.00
                                0.00      0.00      0.00

     XDM     stress (kbar)      0.00      0.00      0.00
                                0.00      0.00      0.00
                                0.00      0.00      0.00

     dft-nl  stress (kbar)      0.00      0.00      0.00
                                0.00      0.00      0.00
                                0.00      0.00      0.00

     TS-vdW  stress (kbar)      0.00      0.00      0.00
                                0.00      0.00      0.00
                                0.00      0.00      0.00



     Writing output data file CsSnI3.save/
 
     init_run     :      0.89s CPU      1.29s WALL (       2 calls)
     electrons    :     56.91s CPU     61.02s WALL (      11 calls)
     update_pot   :      2.43s CPU      2.49s WALL (       9 calls)
     forces       :      0.85s CPU      0.96s WALL (      11 calls)
     stress       :      2.29s CPU      2.47s WALL (      11 calls)

     Called by init_run:
     wfcinit      :      0.06s CPU      0.13s WALL (       2 calls)
     wfcinit:atom :      0.00s CPU      0.00s WALL (       8 calls)
     wfcinit:wfcr :      0.06s CPU      0.12s WALL (       8 calls)
     potinit      :      0.41s CPU      0.50s WALL (       2 calls)
     hinit0       :      0.29s CPU      0.38s WALL (       2 calls)

     Called by electrons:
     c_bands      :      8.40s CPU      9.18s WALL (     218 calls)
     sum_band     :      6.38s CPU      7.68s WALL (     218 calls)
     v_of_rho     :      0.62s CPU      0.67s WALL (     228 calls)
     v_h          :      0.06s CPU      0.07s WALL (     228 calls)
     v_xc         :      0.61s CPU      0.65s WALL (     250 calls)
     newd         :      4.47s CPU      5.50s WALL (     228 calls)
     PAW_pot      :     39.70s CPU     40.60s WALL (     237 calls)
     mix_rho      :      0.21s CPU      0.25s WALL (     218 calls)

     Called by c_bands:
     init_us_2    :      0.19s CPU      0.19s WALL (    1876 calls)
     ccgdiagg     :      6.15s CPU      6.73s WALL (     872 calls)
     wfcrot       :      2.15s CPU      2.36s WALL (     832 calls)

     Called by sum_band:
     sum_band:bec :      0.01s CPU      0.02s WALL (     908 calls)
     addusdens    :      4.67s CPU      5.88s WALL (     218 calls)

     Called by *cgdiagg:
     h_psi        :      5.64s CPU      6.20s WALL (   23607 calls)
     s_psi        :      0.35s CPU      0.35s WALL (   46382 calls)
     cdiaghg      :      0.71s CPU      0.78s WALL (     832 calls)
     cdiaghg:chol :      0.09s CPU      0.10s WALL (     832 calls)
     cdiaghg:inve :      0.05s CPU      0.06s WALL (     832 calls)
     cdiaghg:para :      0.06s CPU      0.08s WALL (    1664 calls)

     Called by h_psi:
     h_psi:pot    :      5.59s CPU      6.14s WALL (   23607 calls)
     h_psi:calbec :      0.28s CPU      0.51s WALL (   23607 calls)
     vloc_psi     :      5.11s CPU      5.33s WALL (   23607 calls)
     add_vuspsi   :      0.13s CPU      0.20s WALL (   23607 calls)
     hs_1psi      :      4.79s CPU      5.23s WALL (   22775 calls)
     s_1psi       :      0.52s CPU      0.66s WALL (   22775 calls)

     General routines
     calbec       :      0.60s CPU      0.89s WALL (   47510 calls)
     fft          :      0.68s CPU      0.74s WALL (    2793 calls)
     ffts         :      0.05s CPU      0.05s WALL (     218 calls)
     fftw         :      5.54s CPU      5.68s WALL (   65854 calls)
 
     Parallel routines
     fft_scatt_xy :      0.17s CPU      0.36s WALL (   68865 calls)
     fft_scatt_yz :      5.47s CPU      4.97s WALL (   68865 calls)

     PAW routines
     PAW_pot      :     39.70s CPU     40.60s WALL (     237 calls)
     PAW_symme    :      1.38s CPU      1.40s WALL (     455 calls)
 
     PWSCF        :   1m 8.03s CPU   1m13.60s WALL

 
   This run was terminated on:  19:23:51  12Jan2021            

=------------------------------------------------------------------------------=
   JOB DONE.
=------------------------------------------------------------------------------=
