
     Program PWSCF v.6.4.1 starts on 12Jan2021 at 18:57: 6 

     This program is part of the open-source Quantum ESPRESSO suite
     for quantum simulation of materials; please cite
         "P. Giannozzi et al., J. Phys.:Condens. Matter 21 395502 (2009);
         "P. Giannozzi et al., J. Phys.:Condens. Matter 29 465901 (2017);
          URL http://www.quantum-espresso.org", 
     in publications or presentations arising from this work. More details at
     http://www.quantum-espresso.org/quote

     Parallel version (MPI & OpenMP), running on      48 processor cores
     Number of MPI processes:                48
     Threads/MPI process:                     1

     MPI processes distributed on     1 nodes
     R & G space division:  proc/nbgrp/npool/nimage =      48
     Waiting for input...
     Reading input from standard input

     Current dimensions of program PWSCF are:
     Max number of different atomic species (ntypx) = 10
     Max number of k-points (npk) =  40000
     Max angular momentum in pseudopotentials (lmaxx) =  3
               file Cs.pbe-spn-kjpaw_psl.1.0.0.UPF: wavefunction(s)  5S 6S renormalized
               file I.pbe-n-kjpaw_psl.1.0.0.UPF: wavefunction(s)  5S renormalized

     Subspace diagonalization in iterative solution of the eigenvalue problem:
     one sub-group per band group will be used
     scalapack distributed-memory algorithm (size of sub-group:  4*  4 procs)

     Found symmetry operation: I + (  0.0000 -0.5000 -0.5000)
     This is a supercell, fractional translations are disabled
     Message from routine setup:
     DEPRECATED: symmetry with ibrav=0, use correct ibrav instead
 
     Parallelization info
     --------------------
     sticks:   dense  smooth     PW     G-vecs:    dense   smooth      PW
     Min          87      87     24                 4277     4277     612
     Max          88      88     25                 4284     4284     615
     Sum        4197    4197   1153               205453   205453   29423
 

     Title: 
     CsIhexagonal                                                               


     bravais-lattice index     =            0
     lattice parameter (alat)  =      14.8517  a.u.
     unit-cell volume          =    3275.8800 (a.u.)^3
     number of atoms/cell      =            8
     number of atomic types    =            2
     number of electrons       =        64.00
     number of Kohn-Sham states=           32
     kinetic-energy cutoff     =      60.0000  Ry
     charge density cutoff     =     240.0000  Ry
     convergence threshold     =      1.0E-06
     mixing beta               =       0.5000
     number of iterations used =            8  plain     mixing
     Exchange-correlation      = SLA PW PBX PBC ( 1  4  3  4 0 0)
     nstep                     =           50


     celldm(1)=  14.851694  celldm(2)=   0.000000  celldm(3)=   0.000000
     celldm(4)=   0.000000  celldm(5)=   0.000000  celldm(6)=   0.000000

     crystal axes: (cart. coord. in units of alat)
               a(1) = (   1.000000   0.000000   0.000000 )  
               a(2) = (   0.000000   1.000000   0.000000 )  
               a(3) = (   0.000000   0.000000   1.000000 )  

     reciprocal axes: (cart. coord. in units 2 pi/alat)
               b(1) = (  1.000000  0.000000  0.000000 )  
               b(2) = (  0.000000  1.000000  0.000000 )  
               b(3) = (  0.000000  0.000000  1.000000 )  


     PseudoPot. # 1 for Cs read from file:
     ../../../pseudo/Cs.pbe-spn-kjpaw_psl.1.0.0.UPF
     MD5 check sum: b82c75cc2e1f4ff73b6412cffeb9c584
     Pseudo is Projector augmented-wave + core cor, Zval =  9.0
     Generated using "atomic" code by A. Dal Corso v.6.4.1
     Shape of augmentation charge: PSQ
     Using radial grid of 1251 points,  9 beta functions with: 
                l(1) =   0
                l(2) =   0
                l(3) =   0
                l(4) =   1
                l(5) =   1
                l(6) =   2
                l(7) =   2
                l(8) =   3
                l(9) =   3
     Q(r) pseudized with 0 coefficients 


     PseudoPot. # 2 for I  read from file:
     ../../../pseudo/I.pbe-n-kjpaw_psl.1.0.0.UPF
     MD5 check sum: cd3d296c3308a581e1559a0c8a554cb5
     Pseudo is Projector augmented-wave + core cor, Zval =  7.0
     Generated using "atomic" code by A. Dal Corso v.6.3
     Shape of augmentation charge: PSQ
     Using radial grid of 1247 points,  6 beta functions with: 
                l(1) =   0
                l(2) =   0
                l(3) =   1
                l(4) =   1
                l(5) =   2
                l(6) =   2
     Q(r) pseudized with 0 coefficients 


     atomic species   valence    mass     pseudopotential
        Cs             9.00   132.90000     Cs( 1.00)
        I              7.00   126.90000     I ( 1.00)

     48 Sym. Ops., with inversion, found


                                    s                        frac. trans.

      isym =  1     identity                                     

 cryst.   s( 1) = (     1          0          0      )
                  (     0          1          0      )
                  (     0          0          1      )

 cart.    s( 1) = (  1.0000000  0.0000000  0.0000000 )
                  (  0.0000000  1.0000000  0.0000000 )
                  (  0.0000000  0.0000000  1.0000000 )


      isym =  2     180 deg rotation - cart. axis [0,0,1]        

 cryst.   s( 2) = (    -1          0          0      )
                  (     0         -1          0      )
                  (     0          0          1      )

 cart.    s( 2) = ( -1.0000000  0.0000000  0.0000000 )
                  (  0.0000000 -1.0000000  0.0000000 )
                  (  0.0000000  0.0000000  1.0000000 )


      isym =  3     180 deg rotation - cart. axis [0,1,0]        

 cryst.   s( 3) = (    -1          0          0      )
                  (     0          1          0      )
                  (     0          0         -1      )

 cart.    s( 3) = ( -1.0000000  0.0000000  0.0000000 )
                  (  0.0000000  1.0000000  0.0000000 )
                  (  0.0000000  0.0000000 -1.0000000 )


      isym =  4     180 deg rotation - cart. axis [1,0,0]        

 cryst.   s( 4) = (     1          0          0      )
                  (     0         -1          0      )
                  (     0          0         -1      )

 cart.    s( 4) = (  1.0000000  0.0000000  0.0000000 )
                  (  0.0000000 -1.0000000  0.0000000 )
                  (  0.0000000  0.0000000 -1.0000000 )


      isym =  5     180 deg rotation - cart. axis [1,1,0]        

 cryst.   s( 5) = (     0          1          0      )
                  (     1          0          0      )
                  (     0          0         -1      )

 cart.    s( 5) = (  0.0000000  1.0000000  0.0000000 )
                  (  1.0000000  0.0000000  0.0000000 )
                  (  0.0000000  0.0000000 -1.0000000 )


      isym =  6     180 deg rotation - cart. axis [1,-1,0]       

 cryst.   s( 6) = (     0         -1          0      )
                  (    -1          0          0      )
                  (     0          0         -1      )

 cart.    s( 6) = (  0.0000000 -1.0000000  0.0000000 )
                  ( -1.0000000  0.0000000  0.0000000 )
                  (  0.0000000  0.0000000 -1.0000000 )


      isym =  7      90 deg rotation - cart. axis [0,0,-1]       

 cryst.   s( 7) = (     0         -1          0      )
                  (     1          0          0      )
                  (     0          0          1      )

 cart.    s( 7) = (  0.0000000  1.0000000  0.0000000 )
                  ( -1.0000000  0.0000000  0.0000000 )
                  (  0.0000000  0.0000000  1.0000000 )


      isym =  8      90 deg rotation - cart. axis [0,0,1]        

 cryst.   s( 8) = (     0          1          0      )
                  (    -1          0          0      )
                  (     0          0          1      )

 cart.    s( 8) = (  0.0000000 -1.0000000  0.0000000 )
                  (  1.0000000  0.0000000  0.0000000 )
                  (  0.0000000  0.0000000  1.0000000 )


      isym =  9     180 deg rotation - cart. axis [1,0,1]        

 cryst.   s( 9) = (     0          0          1      )
                  (     0         -1          0      )
                  (     1          0          0      )

 cart.    s( 9) = (  0.0000000  0.0000000  1.0000000 )
                  (  0.0000000 -1.0000000  0.0000000 )
                  (  1.0000000  0.0000000  0.0000000 )


      isym = 10     180 deg rotation - cart. axis [-1,0,1]       

 cryst.   s(10) = (     0          0         -1      )
                  (     0         -1          0      )
                  (    -1          0          0      )

 cart.    s(10) = (  0.0000000  0.0000000 -1.0000000 )
                  (  0.0000000 -1.0000000  0.0000000 )
                  ( -1.0000000  0.0000000  0.0000000 )


      isym = 11      90 deg rotation - cart. axis [0,1,0]        

 cryst.   s(11) = (     0          0         -1      )
                  (     0          1          0      )
                  (     1          0          0      )

 cart.    s(11) = (  0.0000000  0.0000000  1.0000000 )
                  (  0.0000000  1.0000000  0.0000000 )
                  ( -1.0000000  0.0000000  0.0000000 )


      isym = 12      90 deg rotation - cart. axis [0,-1,0]       

 cryst.   s(12) = (     0          0          1      )
                  (     0          1          0      )
                  (    -1          0          0      )

 cart.    s(12) = (  0.0000000  0.0000000 -1.0000000 )
                  (  0.0000000  1.0000000  0.0000000 )
                  (  1.0000000  0.0000000  0.0000000 )


      isym = 13     180 deg rotation - cart. axis [0,1,1]        

 cryst.   s(13) = (    -1          0          0      )
                  (     0          0          1      )
                  (     0          1          0      )

 cart.    s(13) = ( -1.0000000  0.0000000  0.0000000 )
                  (  0.0000000  0.0000000  1.0000000 )
                  (  0.0000000  1.0000000  0.0000000 )


      isym = 14     180 deg rotation - cart. axis [0,1,-1]       

 cryst.   s(14) = (    -1          0          0      )
                  (     0          0         -1      )
                  (     0         -1          0      )

 cart.    s(14) = ( -1.0000000  0.0000000  0.0000000 )
                  (  0.0000000  0.0000000 -1.0000000 )
                  (  0.0000000 -1.0000000  0.0000000 )


      isym = 15      90 deg rotation - cart. axis [-1,0,0]       

 cryst.   s(15) = (     1          0          0      )
                  (     0          0         -1      )
                  (     0          1          0      )

 cart.    s(15) = (  1.0000000  0.0000000  0.0000000 )
                  (  0.0000000  0.0000000  1.0000000 )
                  (  0.0000000 -1.0000000  0.0000000 )


      isym = 16      90 deg rotation - cart. axis [1,0,0]        

 cryst.   s(16) = (     1          0          0      )
                  (     0          0          1      )
                  (     0         -1          0      )

 cart.    s(16) = (  1.0000000  0.0000000  0.0000000 )
                  (  0.0000000  0.0000000 -1.0000000 )
                  (  0.0000000  1.0000000  0.0000000 )


      isym = 17     120 deg rotation - cart. axis [-1,-1,-1]     

 cryst.   s(17) = (     0          0          1      )
                  (     1          0          0      )
                  (     0          1          0      )

 cart.    s(17) = (  0.0000000  1.0000000  0.0000000 )
                  (  0.0000000  0.0000000  1.0000000 )
                  (  1.0000000  0.0000000  0.0000000 )


      isym = 18     120 deg rotation - cart. axis [-1,1,1]       

 cryst.   s(18) = (     0          0         -1      )
                  (    -1          0          0      )
                  (     0          1          0      )

 cart.    s(18) = (  0.0000000 -1.0000000  0.0000000 )
                  (  0.0000000  0.0000000  1.0000000 )
                  ( -1.0000000  0.0000000  0.0000000 )


      isym = 19     120 deg rotation - cart. axis [1,1,-1]       

 cryst.   s(19) = (     0          0         -1      )
                  (     1          0          0      )
                  (     0         -1          0      )

 cart.    s(19) = (  0.0000000  1.0000000  0.0000000 )
                  (  0.0000000  0.0000000 -1.0000000 )
                  ( -1.0000000  0.0000000  0.0000000 )


      isym = 20     120 deg rotation - cart. axis [1,-1,1]       

 cryst.   s(20) = (     0          0          1      )
                  (    -1          0          0      )
                  (     0         -1          0      )

 cart.    s(20) = (  0.0000000 -1.0000000  0.0000000 )
                  (  0.0000000  0.0000000 -1.0000000 )
                  (  1.0000000  0.0000000  0.0000000 )


      isym = 21     120 deg rotation - cart. axis [1,1,1]        

 cryst.   s(21) = (     0          1          0      )
                  (     0          0          1      )
                  (     1          0          0      )

 cart.    s(21) = (  0.0000000  0.0000000  1.0000000 )
                  (  1.0000000  0.0000000  0.0000000 )
                  (  0.0000000  1.0000000  0.0000000 )


      isym = 22     120 deg rotation - cart. axis [-1,1,-1]      

 cryst.   s(22) = (     0         -1          0      )
                  (     0          0         -1      )
                  (     1          0          0      )

 cart.    s(22) = (  0.0000000  0.0000000  1.0000000 )
                  ( -1.0000000  0.0000000  0.0000000 )
                  (  0.0000000 -1.0000000  0.0000000 )


      isym = 23     120 deg rotation - cart. axis [1,-1,-1]      

 cryst.   s(23) = (     0         -1          0      )
                  (     0          0          1      )
                  (    -1          0          0      )

 cart.    s(23) = (  0.0000000  0.0000000 -1.0000000 )
                  ( -1.0000000  0.0000000  0.0000000 )
                  (  0.0000000  1.0000000  0.0000000 )


      isym = 24     120 deg rotation - cart. axis [-1,-1,1]      

 cryst.   s(24) = (     0          1          0      )
                  (     0          0         -1      )
                  (    -1          0          0      )

 cart.    s(24) = (  0.0000000  0.0000000 -1.0000000 )
                  (  1.0000000  0.0000000  0.0000000 )
                  (  0.0000000 -1.0000000  0.0000000 )


      isym = 25     inversion                                    

 cryst.   s(25) = (    -1          0          0      )
                  (     0         -1          0      )
                  (     0          0         -1      )

 cart.    s(25) = ( -1.0000000  0.0000000  0.0000000 )
                  (  0.0000000 -1.0000000  0.0000000 )
                  (  0.0000000  0.0000000 -1.0000000 )


      isym = 26     inv. 180 deg rotation - cart. axis [0,0,1]   

 cryst.   s(26) = (     1          0          0      )
                  (     0          1          0      )
                  (     0          0         -1      )

 cart.    s(26) = (  1.0000000  0.0000000  0.0000000 )
                  (  0.0000000  1.0000000  0.0000000 )
                  (  0.0000000  0.0000000 -1.0000000 )


      isym = 27     inv. 180 deg rotation - cart. axis [0,1,0]   

 cryst.   s(27) = (     1          0          0      )
                  (     0         -1          0      )
                  (     0          0          1      )

 cart.    s(27) = (  1.0000000  0.0000000  0.0000000 )
                  (  0.0000000 -1.0000000  0.0000000 )
                  (  0.0000000  0.0000000  1.0000000 )


      isym = 28     inv. 180 deg rotation - cart. axis [1,0,0]   

 cryst.   s(28) = (    -1          0          0      )
                  (     0          1          0      )
                  (     0          0          1      )

 cart.    s(28) = ( -1.0000000  0.0000000  0.0000000 )
                  (  0.0000000  1.0000000  0.0000000 )
                  (  0.0000000  0.0000000  1.0000000 )


      isym = 29     inv. 180 deg rotation - cart. axis [1,1,0]   

 cryst.   s(29) = (     0         -1          0      )
                  (    -1          0          0      )
                  (     0          0          1      )

 cart.    s(29) = (  0.0000000 -1.0000000  0.0000000 )
                  ( -1.0000000  0.0000000  0.0000000 )
                  (  0.0000000  0.0000000  1.0000000 )


      isym = 30     inv. 180 deg rotation - cart. axis [1,-1,0]  

 cryst.   s(30) = (     0          1          0      )
                  (     1          0          0      )
                  (     0          0          1      )

 cart.    s(30) = (  0.0000000  1.0000000  0.0000000 )
                  (  1.0000000  0.0000000  0.0000000 )
                  (  0.0000000  0.0000000  1.0000000 )


      isym = 31     inv.  90 deg rotation - cart. axis [0,0,-1]  

 cryst.   s(31) = (     0          1          0      )
                  (    -1          0          0      )
                  (     0          0         -1      )

 cart.    s(31) = (  0.0000000 -1.0000000  0.0000000 )
                  (  1.0000000  0.0000000  0.0000000 )
                  (  0.0000000  0.0000000 -1.0000000 )


      isym = 32     inv.  90 deg rotation - cart. axis [0,0,1]   

 cryst.   s(32) = (     0         -1          0      )
                  (     1          0          0      )
                  (     0          0         -1      )

 cart.    s(32) = (  0.0000000  1.0000000  0.0000000 )
                  ( -1.0000000  0.0000000  0.0000000 )
                  (  0.0000000  0.0000000 -1.0000000 )


      isym = 33     inv. 180 deg rotation - cart. axis [1,0,1]   

 cryst.   s(33) = (     0          0         -1      )
                  (     0          1          0      )
                  (    -1          0          0      )

 cart.    s(33) = (  0.0000000  0.0000000 -1.0000000 )
                  (  0.0000000  1.0000000  0.0000000 )
                  ( -1.0000000  0.0000000  0.0000000 )


      isym = 34     inv. 180 deg rotation - cart. axis [-1,0,1]  

 cryst.   s(34) = (     0          0          1      )
                  (     0          1          0      )
                  (     1          0          0      )

 cart.    s(34) = (  0.0000000  0.0000000  1.0000000 )
                  (  0.0000000  1.0000000  0.0000000 )
                  (  1.0000000  0.0000000  0.0000000 )


      isym = 35     inv.  90 deg rotation - cart. axis [0,1,0]   

 cryst.   s(35) = (     0          0          1      )
                  (     0         -1          0      )
                  (    -1          0          0      )

 cart.    s(35) = (  0.0000000  0.0000000 -1.0000000 )
                  (  0.0000000 -1.0000000  0.0000000 )
                  (  1.0000000  0.0000000  0.0000000 )


      isym = 36     inv.  90 deg rotation - cart. axis [0,-1,0]  

 cryst.   s(36) = (     0          0         -1      )
                  (     0         -1          0      )
                  (     1          0          0      )

 cart.    s(36) = (  0.0000000  0.0000000  1.0000000 )
                  (  0.0000000 -1.0000000  0.0000000 )
                  ( -1.0000000  0.0000000  0.0000000 )


      isym = 37     inv. 180 deg rotation - cart. axis [0,1,1]   

 cryst.   s(37) = (     1          0          0      )
                  (     0          0         -1      )
                  (     0         -1          0      )

 cart.    s(37) = (  1.0000000  0.0000000  0.0000000 )
                  (  0.0000000  0.0000000 -1.0000000 )
                  (  0.0000000 -1.0000000  0.0000000 )


      isym = 38     inv. 180 deg rotation - cart. axis [0,1,-1]  

 cryst.   s(38) = (     1          0          0      )
                  (     0          0          1      )
                  (     0          1          0      )

 cart.    s(38) = (  1.0000000  0.0000000  0.0000000 )
                  (  0.0000000  0.0000000  1.0000000 )
                  (  0.0000000  1.0000000  0.0000000 )


      isym = 39     inv.  90 deg rotation - cart. axis [-1,0,0]  

 cryst.   s(39) = (    -1          0          0      )
                  (     0          0          1      )
                  (     0         -1          0      )

 cart.    s(39) = ( -1.0000000  0.0000000  0.0000000 )
                  (  0.0000000  0.0000000 -1.0000000 )
                  (  0.0000000  1.0000000  0.0000000 )


      isym = 40     inv.  90 deg rotation - cart. axis [1,0,0]   

 cryst.   s(40) = (    -1          0          0      )
                  (     0          0         -1      )
                  (     0          1          0      )

 cart.    s(40) = ( -1.0000000  0.0000000  0.0000000 )
                  (  0.0000000  0.0000000  1.0000000 )
                  (  0.0000000 -1.0000000  0.0000000 )


      isym = 41     inv. 120 deg rotation - cart. axis [-1,-1,-1]

 cryst.   s(41) = (     0          0         -1      )
                  (    -1          0          0      )
                  (     0         -1          0      )

 cart.    s(41) = (  0.0000000 -1.0000000  0.0000000 )
                  (  0.0000000  0.0000000 -1.0000000 )
                  ( -1.0000000  0.0000000  0.0000000 )


      isym = 42     inv. 120 deg rotation - cart. axis [-1,1,1]  

 cryst.   s(42) = (     0          0          1      )
                  (     1          0          0      )
                  (     0         -1          0      )

 cart.    s(42) = (  0.0000000  1.0000000  0.0000000 )
                  (  0.0000000  0.0000000 -1.0000000 )
                  (  1.0000000  0.0000000  0.0000000 )


      isym = 43     inv. 120 deg rotation - cart. axis [1,1,-1]  

 cryst.   s(43) = (     0          0          1      )
                  (    -1          0          0      )
                  (     0          1          0      )

 cart.    s(43) = (  0.0000000 -1.0000000  0.0000000 )
                  (  0.0000000  0.0000000  1.0000000 )
                  (  1.0000000  0.0000000  0.0000000 )


      isym = 44     inv. 120 deg rotation - cart. axis [1,-1,1]  

 cryst.   s(44) = (     0          0         -1      )
                  (     1          0          0      )
                  (     0          1          0      )

 cart.    s(44) = (  0.0000000  1.0000000  0.0000000 )
                  (  0.0000000  0.0000000  1.0000000 )
                  ( -1.0000000  0.0000000  0.0000000 )


      isym = 45     inv. 120 deg rotation - cart. axis [1,1,1]   

 cryst.   s(45) = (     0         -1          0      )
                  (     0          0         -1      )
                  (    -1          0          0      )

 cart.    s(45) = (  0.0000000  0.0000000 -1.0000000 )
                  ( -1.0000000  0.0000000  0.0000000 )
                  (  0.0000000 -1.0000000  0.0000000 )


      isym = 46     inv. 120 deg rotation - cart. axis [-1,1,-1] 

 cryst.   s(46) = (     0          1          0      )
                  (     0          0          1      )
                  (    -1          0          0      )

 cart.    s(46) = (  0.0000000  0.0000000 -1.0000000 )
                  (  1.0000000  0.0000000  0.0000000 )
                  (  0.0000000  1.0000000  0.0000000 )


      isym = 47     inv. 120 deg rotation - cart. axis [1,-1,-1] 

 cryst.   s(47) = (     0          1          0      )
                  (     0          0         -1      )
                  (     1          0          0      )

 cart.    s(47) = (  0.0000000  0.0000000  1.0000000 )
                  (  1.0000000  0.0000000  0.0000000 )
                  (  0.0000000 -1.0000000  0.0000000 )


      isym = 48     inv. 120 deg rotation - cart. axis [-1,-1,1] 

 cryst.   s(48) = (     0         -1          0      )
                  (     0          0          1      )
                  (     1          0          0      )

 cart.    s(48) = (  0.0000000  0.0000000  1.0000000 )
                  ( -1.0000000  0.0000000  0.0000000 )
                  (  0.0000000  1.0000000  0.0000000 )


   Cartesian axes

     site n.     atom                  positions (alat units)
         1           Cs  tau(   1) = (   0.0000000   0.0000000   0.0000000  )
         2           Cs  tau(   2) = (   0.0000000   0.5000000   0.5000000  )
         3           Cs  tau(   3) = (   0.5000000   0.0000000   0.5000000  )
         4           Cs  tau(   4) = (   0.5000000   0.5000000   0.0000000  )
         5           I   tau(   5) = (   0.5000000   0.0000000   0.0000000  )
         6           I   tau(   6) = (   0.5000000   0.5000000   0.5000000  )
         7           I   tau(   7) = (   0.0000000   0.0000000   0.5000000  )
         8           I   tau(   8) = (   0.0000000   0.5000000   0.0000000  )

   Crystallographic axes

     site n.     atom                  positions (cryst. coord.)
         1           Cs  tau(   1) = (  0.0000000  0.0000000  0.0000000  )
         2           Cs  tau(   2) = (  0.0000000  0.5000000  0.5000000  )
         3           Cs  tau(   3) = (  0.5000000  0.0000000  0.5000000  )
         4           Cs  tau(   4) = (  0.5000000  0.5000000  0.0000000  )
         5           I   tau(   5) = (  0.5000000  0.0000000  0.0000000  )
         6           I   tau(   6) = (  0.5000000  0.5000000  0.5000000  )
         7           I   tau(   7) = (  0.0000000  0.0000000  0.5000000  )
         8           I   tau(   8) = (  0.0000000  0.5000000  0.0000000  )

     number of k points=     4
                       cart. coord. in units 2pi/alat
        k(    1) = (   0.0000000   0.0000000   0.0000000), wk =   0.2500000
        k(    2) = (   0.0000000   0.0000000  -0.5000000), wk =   0.7500000
        k(    3) = (   0.0000000  -0.5000000  -0.5000000), wk =   0.7500000
        k(    4) = (  -0.5000000  -0.5000000  -0.5000000), wk =   0.2500000

                       cryst. coord.
        k(    1) = (   0.0000000   0.0000000   0.0000000), wk =   0.2500000
        k(    2) = (   0.0000000   0.0000000  -0.5000000), wk =   0.7500000
        k(    3) = (   0.0000000  -0.5000000  -0.5000000), wk =   0.7500000
        k(    4) = (  -0.5000000  -0.5000000  -0.5000000), wk =   0.2500000

     Dense  grid:   205453 G-vectors     FFT dimensions: (  75,  75,  75)

     Dynamical RAM for                 wfc:       0.26 MB

     Dynamical RAM for     wfc (w. buffer):       1.31 MB

     Dynamical RAM for           str. fact:       0.13 MB

     Dynamical RAM for           local pot:       0.00 MB

     Dynamical RAM for          nlocal pot:       1.67 MB

     Dynamical RAM for                qrad:      35.24 MB

     Dynamical RAM for          rho,v,vnew:       0.45 MB

     Dynamical RAM for               rhoin:       0.15 MB

     Dynamical RAM for            rho*nmix:       1.05 MB

     Dynamical RAM for           G-vectors:       0.28 MB

     Dynamical RAM for          h,s,v(r/c):       0.00 MB

     Dynamical RAM for          <psi|beta>:       0.10 MB

     Dynamical RAM for      wfcinit/wfcrot:       0.62 MB

     Dynamical RAM for           addusdens:      38.70 MB

     Dynamical RAM for          addusforce:      40.01 MB

     Dynamical RAM for         addusstress:      40.20 MB

     Estimated static dynamical RAM per process >      40.89 MB

     Estimated max dynamical RAM per process >      81.09 MB

     Estimated total dynamical RAM >       3.80 GB

     Initial potential from superposition of free atoms

     starting charge   63.84126, renormalised to   64.00000
     Starting wfcs are   36 randomized atomic wfcs
     Checking if some PAW data can be deallocated... 
       PAW data deallocated on   24 nodes for type:  1
       PAW data deallocated on   24 nodes for type:  2

     total cpu time spent up to now is        4.6 secs

     Self-consistent Calculation

     iteration #  1     ecut=    60.00 Ry     beta= 0.50
     CG style diagonalization
     ethr =  1.00E-02,  avg # of iterations =  2.0

     Threshold (ethr) on eigenvalues was too large:
     Diagonalizing with lowered threshold

     CG style diagonalization
     ethr =  4.44E-04,  avg # of iterations =  2.8

     total cpu time spent up to now is        6.5 secs

     total energy              =   -3179.52853657 Ry
     Harris-Foulkes estimate   =   -3179.62690976 Ry
     estimated scf accuracy    <       0.20220678 Ry

     iteration #  2     ecut=    60.00 Ry     beta= 0.50
     CG style diagonalization
     ethr =  3.16E-04,  avg # of iterations =  3.9

     total cpu time spent up to now is        7.7 secs

     total energy              =   -3179.58534698 Ry
     Harris-Foulkes estimate   =   -3179.58293682 Ry
     estimated scf accuracy    <       0.01223535 Ry

     iteration #  3     ecut=    60.00 Ry     beta= 0.50
     CG style diagonalization
     ethr =  1.91E-05,  avg # of iterations =  5.7

     total cpu time spent up to now is        9.3 secs

     total energy              =   -3179.60927861 Ry
     Harris-Foulkes estimate   =   -3179.61410778 Ry
     estimated scf accuracy    <       0.00959842 Ry

     iteration #  4     ecut=    60.00 Ry     beta= 0.50
     CG style diagonalization
     ethr =  1.50E-05,  avg # of iterations =  4.1

     total cpu time spent up to now is       10.5 secs

     total energy              =   -3179.61168931 Ry
     Harris-Foulkes estimate   =   -3179.61538133 Ry
     estimated scf accuracy    <       0.00655218 Ry

     iteration #  5     ecut=    60.00 Ry     beta= 0.50
     CG style diagonalization
     ethr =  1.02E-05,  avg # of iterations =  3.6

     total cpu time spent up to now is       11.6 secs

     total energy              =   -3179.61209940 Ry
     Harris-Foulkes estimate   =   -3179.61329682 Ry
     estimated scf accuracy    <       0.00150782 Ry

     iteration #  6     ecut=    60.00 Ry     beta= 0.50
     CG style diagonalization
     ethr =  2.36E-06,  avg # of iterations =  4.4

     total cpu time spent up to now is       13.0 secs

     total energy              =   -3179.61315949 Ry
     Harris-Foulkes estimate   =   -3179.61359967 Ry
     estimated scf accuracy    <       0.00100090 Ry

     iteration #  7     ecut=    60.00 Ry     beta= 0.50
     CG style diagonalization
     ethr =  1.56E-06,  avg # of iterations =  3.7

     total cpu time spent up to now is       14.1 secs

     total energy              =   -3179.61300583 Ry
     Harris-Foulkes estimate   =   -3179.61356868 Ry
     estimated scf accuracy    <       0.00078526 Ry

     iteration #  8     ecut=    60.00 Ry     beta= 0.50
     CG style diagonalization
     ethr =  1.23E-06,  avg # of iterations =  3.5

     total cpu time spent up to now is       15.2 secs

     End of self-consistent calculation

          k = 0.0000 0.0000 0.0000 ( 25677 PWs)   bands (ev):

   -19.0038 -18.9958 -18.9958 -18.9942  -9.2067  -9.1782  -9.1782  -9.1755
    -5.9449  -5.9449  -5.9449  -5.8581  -5.8581  -5.8581  -5.8572  -5.8572
    -5.8572  -5.7988  -5.7988  -5.7988   0.6770   0.6770   0.6771   0.8699
     0.8699   0.8699   0.8711   0.8711   0.8711   0.9670   0.9670   0.9670

     occupation numbers 
     1.0000   1.0000   1.0000   1.0000   1.0000   1.0000   1.0000   1.0000
     1.0000   1.0000   1.0000   1.0000   1.0000   1.0000   1.0000   1.0000
     1.0000   1.0000   1.0000   1.0000   1.0000   1.0000   1.0000   1.0000
     1.0000   1.0000   1.0000   1.0000   1.0000   1.0000   1.0000   1.0000

          k = 0.0000 0.0000-0.5000 ( 25628 PWs)   bands (ev):

   -18.9999 -18.9991 -18.9957 -18.9945  -9.2120  -9.2105  -9.1970  -9.1951
    -5.9017  -5.9017  -5.9008  -5.9008  -5.8284  -5.8284  -5.8275  -5.8275
    -5.7975  -5.7967  -5.7841  -5.7831   0.5028   0.5042   0.5708   0.5722
     0.7502   0.7503   0.7514   0.7515   0.9026   0.9026   0.9040   0.9040

     occupation numbers 
     1.0000   1.0000   1.0000   1.0000   1.0000   1.0000   1.0000   1.0000
     1.0000   1.0000   1.0000   1.0000   1.0000   1.0000   1.0000   1.0000
     1.0000   1.0000   1.0000   1.0000   1.0000   1.0000   1.0000   1.0000
     1.0000   1.0000   1.0000   1.0000   1.0000   1.0000   1.0000   1.0000

          k = 0.0000-0.5000-0.5000 ( 25708 PWs)   bands (ev):

   -18.9977 -18.9977 -18.9977 -18.9958  -9.2233  -9.2233  -9.2233  -9.2198
    -5.8649  -5.8649  -5.8649  -5.8631  -5.8036  -5.8035  -5.8027  -5.8027
    -5.7772  -5.7771  -5.7762  -5.7762   0.3797   0.3797   0.3808   0.3809
     0.6748   0.6749   0.6761   0.6762   0.8072   0.8073   0.8074   0.8098

     occupation numbers 
     1.0000   1.0000   1.0000   1.0000   1.0000   1.0000   1.0000   1.0000
     1.0000   1.0000   1.0000   1.0000   1.0000   1.0000   1.0000   1.0000
     1.0000   1.0000   1.0000   1.0000   1.0000   1.0000   1.0000   1.0000
     1.0000   1.0000   1.0000   1.0000   1.0000   1.0000   1.0000   1.0000

          k =-0.5000-0.5000-0.5000 ( 25768 PWs)   bands (ev):

   -18.9976 -18.9976 -18.9976 -18.9957  -9.2418  -9.2417  -9.2418  -9.2383
    -5.8030  -5.8030  -5.8030  -5.8030  -5.8030  -5.8018  -5.8018  -5.8018
    -5.7635  -5.7630  -5.7630  -5.7630   0.2303   0.2311   0.2310   0.2311
     0.6609   0.6610   0.6611   0.6611   0.6611   0.6626   0.6627   0.6628

     occupation numbers 
     1.0000   1.0000   1.0000   1.0000   1.0000   1.0000   1.0000   1.0000
     1.0000   1.0000   1.0000   1.0000   1.0000   1.0000   1.0000   1.0000
     1.0000   1.0000   1.0000   1.0000   1.0000   1.0000   1.0000   1.0000
     1.0000   1.0000   1.0000   1.0000   1.0000   1.0000   1.0000   1.0000

     highest occupied level (ev):     0.9670

!    total energy              =   -3179.61318657 Ry
     Harris-Foulkes estimate   =   -3179.61318715 Ry
     estimated scf accuracy    <       0.00000092 Ry

     total all-electron energy =   -119228.277204 Ry

     The total energy is the sum of the following terms:

     one-electron contribution =     -41.41933299 Ry
     hartree contribution      =      44.68460366 Ry
     xc contribution           =    -147.82008822 Ry
     ewald contribution        =    -197.50970111 Ry
     one-center paw contrib.   =   -2837.54866791 Ry
      -> PAW hartree energy AE =      25.68386724 Ry
      -> PAW hartree energy PS =     -25.57416065 Ry
      -> PAW xc energy AE      =    -383.53909522 Ry
      -> PAW xc energy PS      =      20.52270743 Ry
      -> total E_H with PAW    =      44.79431025 Ry
      -> total E_XC with PAW   =    -510.83647602 Ry

     convergence has been achieved in   8 iterations

     Forces acting on atoms (cartesian axes, Ry/au):

     atom    1 type  1   force =     0.00000000    0.00000000    0.00000000
     atom    2 type  1   force =     0.00000000    0.00000000    0.00000000
     atom    3 type  1   force =     0.00000000   -0.00000000    0.00000000
     atom    4 type  1   force =     0.00000000    0.00000000    0.00000000
     atom    5 type  2   force =     0.00000000    0.00000000    0.00000000
     atom    6 type  2   force =     0.00000000    0.00000000    0.00000000
     atom    7 type  2   force =     0.00000000    0.00000000    0.00000000
     atom    8 type  2   force =     0.00000000    0.00000000    0.00000000
     The non-local contrib.  to forces
     atom    1 type  1   force =     0.00000000    0.00000000    0.00000000
     atom    2 type  1   force =     0.00000000    0.00000000    0.00000000
     atom    3 type  1   force =     0.00000000    0.00000000   -0.00000000
     atom    4 type  1   force =     0.00000000    0.00000000    0.00000000
     atom    5 type  2   force =     0.00000000    0.00000000    0.00000000
     atom    6 type  2   force =     0.00000000    0.00000000    0.00000000
     atom    7 type  2   force =     0.00000000    0.00000000    0.00000000
     atom    8 type  2   force =     0.00000000    0.00000000    0.00000000
     The ionic contribution  to forces
     atom    1 type  1   force =    -0.00000000   -0.00000000   -0.00000000
     atom    2 type  1   force =    -0.00000000    0.00000000    0.00000000
     atom    3 type  1   force =     0.00000000   -0.00000000    0.00000000
     atom    4 type  1   force =     0.00000000    0.00000000   -0.00000000
     atom    5 type  2   force =     0.00000000   -0.00000000   -0.00000000
     atom    6 type  2   force =     0.00000000    0.00000000    0.00000000
     atom    7 type  2   force =    -0.00000000   -0.00000000    0.00000000
     atom    8 type  2   force =    -0.00000000    0.00000000   -0.00000000
     The local contribution  to forces
     atom    1 type  1   force =     0.00000000    0.00000000    0.00000000
     atom    2 type  1   force =     0.00000000   -0.00000000   -0.00000000
     atom    3 type  1   force =    -0.00000000    0.00000000   -0.00000000
     atom    4 type  1   force =    -0.00000000   -0.00000000    0.00000000
     atom    5 type  2   force =    -0.00000000    0.00000000    0.00000000
     atom    6 type  2   force =    -0.00000000   -0.00000000   -0.00000000
     atom    7 type  2   force =     0.00000000    0.00000000   -0.00000000
     atom    8 type  2   force =     0.00000000   -0.00000000    0.00000000
     The core correction contribution to forces
     atom    1 type  1   force =     0.00000000    0.00000000    0.00000000
     atom    2 type  1   force =     0.00000000   -0.00000000   -0.00000000
     atom    3 type  1   force =    -0.00000000    0.00000000   -0.00000000
     atom    4 type  1   force =    -0.00000000   -0.00000000    0.00000000
     atom    5 type  2   force =    -0.00000000    0.00000000    0.00000000
     atom    6 type  2   force =    -0.00000000   -0.00000000   -0.00000000
     atom    7 type  2   force =     0.00000000    0.00000000   -0.00000000
     atom    8 type  2   force =     0.00000000   -0.00000000    0.00000000
     The Hubbard contrib.    to forces
     atom    1 type  1   force =     0.00000000    0.00000000    0.00000000
     atom    2 type  1   force =     0.00000000    0.00000000    0.00000000
     atom    3 type  1   force =     0.00000000    0.00000000    0.00000000
     atom    4 type  1   force =     0.00000000    0.00000000    0.00000000
     atom    5 type  2   force =     0.00000000    0.00000000    0.00000000
     atom    6 type  2   force =     0.00000000    0.00000000    0.00000000
     atom    7 type  2   force =     0.00000000    0.00000000    0.00000000
     atom    8 type  2   force =     0.00000000    0.00000000    0.00000000
     The SCF correction term to forces
     atom    1 type  1   force =    -0.00000000    0.00000000    0.00000000
     atom    2 type  1   force =    -0.00000000    0.00000000   -0.00000000
     atom    3 type  1   force =     0.00000000   -0.00000000   -0.00000000
     atom    4 type  1   force =     0.00000000    0.00000000    0.00000000
     atom    5 type  2   force =    -0.00000000    0.00000000    0.00000000
     atom    6 type  2   force =    -0.00000000    0.00000000    0.00000000
     atom    7 type  2   force =    -0.00000000   -0.00000000    0.00000000
     atom    8 type  2   force =     0.00000000    0.00000000    0.00000000

     Total force =     0.000000     Total SCF correction =     0.000000


     Computing stress (Cartesian axis) and pressure

          total   stress  (Ry/bohr**3)                   (kbar)     P=   -0.57
  -0.00000389   0.00000000   0.00000000         -0.57      0.00      0.00
   0.00000000  -0.00000389   0.00000000          0.00     -0.57      0.00
   0.00000000   0.00000000  -0.00000389          0.00      0.00     -0.57

     kinetic stress (kbar)   2521.16      0.00      0.00
                                0.00   2521.16      0.00
                                0.00      0.00   2521.16

     local   stress (kbar)  -1291.40      0.00     -0.00
                                0.00  -1291.40     -0.00
                               -0.00     -0.00  -1291.40

     nonloc. stress (kbar)   2085.73      0.00      0.00
                                0.00   2085.73      0.00
                                0.00      0.00   2085.73

     hartree stress (kbar)    668.86      0.00      0.00
                                0.00    668.86      0.00
                                0.00      0.00    668.86

     exc-cor stress (kbar)   3650.88      0.00     -0.00
                                0.00   3650.88     -0.00
                               -0.00     -0.00   3650.88

     corecor stress (kbar)  -4679.37     -0.00      0.00
                               -0.00  -4679.37      0.00
                                0.00      0.00  -4679.37

     ewald   stress (kbar)  -2956.42      0.00      0.00
                                0.00  -2956.42      0.00
                                0.00      0.00  -2956.42

     hubbard stress (kbar)      0.00      0.00      0.00
                                0.00      0.00      0.00
                                0.00      0.00      0.00

     london  stress (kbar)      0.00      0.00      0.00
                                0.00      0.00      0.00
                                0.00      0.00      0.00

     DFT-D3  stress (kbar)      0.00      0.00      0.00
                                0.00      0.00      0.00
                                0.00      0.00      0.00

     XDM     stress (kbar)      0.00      0.00      0.00
                                0.00      0.00      0.00
                                0.00      0.00      0.00

     dft-nl  stress (kbar)      0.00      0.00      0.00
                                0.00      0.00      0.00
                                0.00      0.00      0.00

     TS-vdW  stress (kbar)      0.00      0.00      0.00
                                0.00      0.00      0.00
                                0.00      0.00      0.00



     BFGS Geometry Optimization

     number of scf cycles    =   1
     number of bfgs steps    =   0

     enthalpy new            =   -3179.6131865672 Ry

     new trust radius        =       0.0011120143 bohr
     new conv_thr            =       0.0000010000 Ry

     new unit-cell volume =   3274.92538 a.u.^3 (   485.29387 Ang^3 )
     density =      3.55585 g/cm^3

CELL_PARAMETERS (angstrom)
   7.858414527   0.000000000   0.000000000
   0.000000000   7.858414527   0.000000000
   0.000000000   0.000000000   7.858414527

ATOMIC_POSITIONS (alat)
Cs       0.000000000   0.000000000   0.000000000
Cs       0.000000000   0.499951428   0.499951428
Cs       0.499951428  -0.000000000   0.499951428
Cs       0.499951428   0.499951428   0.000000000
I        0.499951428   0.000000000   0.000000000
I        0.499951428   0.499951428   0.499951428
I        0.000000000   0.000000000   0.499951428
I        0.000000000   0.499951428   0.000000000



     Writing output data file CsSnI3.save/
     NEW-OLD atomic charge density approx. for the potential
     extrapolated charge   63.98139, renormalised to   64.00000

     total cpu time spent up to now is       17.8 secs

     Self-consistent Calculation

     iteration #  1     ecut=    60.00 Ry     beta= 0.50
     CG style diagonalization
     ethr =  1.00E-06,  avg # of iterations =  2.6

     total cpu time spent up to now is       18.9 secs

     total energy              =   -3179.61328872 Ry
     Harris-Foulkes estimate   =   -3179.61797747 Ry
     estimated scf accuracy    <       0.00008525 Ry

     iteration #  2     ecut=    60.00 Ry     beta= 0.50
     CG style diagonalization
     ethr =  1.33E-07,  avg # of iterations =  4.1

     total cpu time spent up to now is       20.1 secs

     total energy              =   -3179.61330622 Ry
     Harris-Foulkes estimate   =   -3179.61331560 Ry
     estimated scf accuracy    <       0.00001243 Ry

     iteration #  3     ecut=    60.00 Ry     beta= 0.50
     CG style diagonalization
     ethr =  1.94E-08,  avg # of iterations =  6.2

     total cpu time spent up to now is       21.8 secs

     total energy              =   -3179.61334084 Ry
     Harris-Foulkes estimate   =   -3179.61334805 Ry
     estimated scf accuracy    <       0.00001138 Ry

     iteration #  4     ecut=    60.00 Ry     beta= 0.50
     CG style diagonalization
     ethr =  1.78E-08,  avg # of iterations =  3.6

     total cpu time spent up to now is       23.0 secs

     total energy              =   -3179.61334401 Ry
     Harris-Foulkes estimate   =   -3179.61334300 Ry
     estimated scf accuracy    <       0.00000147 Ry

     iteration #  5     ecut=    60.00 Ry     beta= 0.50
     CG style diagonalization
     ethr =  2.30E-09,  avg # of iterations =  5.9

     total cpu time spent up to now is       24.6 secs

     total energy              =   -3179.61334178 Ry
     Harris-Foulkes estimate   =   -3179.61335191 Ry
     estimated scf accuracy    <       0.00001779 Ry

     iteration #  6     ecut=    60.00 Ry     beta= 0.50
     CG style diagonalization
     ethr =  2.30E-09,  avg # of iterations =  4.8

     total cpu time spent up to now is       26.0 secs

     total energy              =   -3179.61334304 Ry
     Harris-Foulkes estimate   =   -3179.61334418 Ry
     estimated scf accuracy    <       0.00000197 Ry

     iteration #  7     ecut=    60.00 Ry     beta= 0.50
     CG style diagonalization
     ethr =  2.30E-09,  avg # of iterations =  4.2

     total cpu time spent up to now is       27.2 secs

     End of self-consistent calculation

          k = 0.0000 0.0000 0.0000 ( 25677 PWs)   bands (ev):

   -19.0113 -19.0030 -19.0028 -19.0028  -9.1794  -9.1499  -9.1499  -9.1499
    -5.9507  -5.9507  -5.9507  -5.8637  -5.8637  -5.8637  -5.8636  -5.8636
    -5.8636  -5.8050  -5.8050  -5.8050   0.6953   0.6953   0.6953   0.8904
     0.8904   0.8904   0.8904   0.8904   0.8904   0.9878   0.9878   0.9878

     occupation numbers 
     1.0000   1.0000   1.0000   1.0000   1.0000   1.0000   1.0000   1.0000
     1.0000   1.0000   1.0000   1.0000   1.0000   1.0000   1.0000   1.0000
     1.0000   1.0000   1.0000   1.0000   1.0000   1.0000   1.0000   1.0000
     1.0000   1.0000   1.0000   1.0000   1.0000   1.0000   1.0000   1.0000

          k = 0.0000 0.0000-0.5000 ( 25628 PWs)   bands (ev):

   -19.0071 -19.0069 -19.0028 -19.0027  -9.1841  -9.1841  -9.1690  -9.1689
    -5.9072  -5.9072  -5.9071  -5.9071  -5.8341  -5.8341  -5.8340  -5.8340
    -5.8029  -5.8028  -5.7895  -5.7894   0.5218   0.5218   0.5903   0.5903
     0.7697   0.7697   0.7697   0.7697   0.9235   0.9235   0.9235   0.9235

     occupation numbers 
     1.0000   1.0000   1.0000   1.0000   1.0000   1.0000   1.0000   1.0000
     1.0000   1.0000   1.0000   1.0000   1.0000   1.0000   1.0000   1.0000
     1.0000   1.0000   1.0000   1.0000   1.0000   1.0000   1.0000   1.0000
     1.0000   1.0000   1.0000   1.0000   1.0000   1.0000   1.0000   1.0000

          k = 0.0000-0.5000-0.5000 ( 25708 PWs)   bands (ev):

   -19.0050 -19.0047 -19.0047 -19.0047  -9.1956  -9.1956  -9.1956  -9.1955
    -5.8707  -5.8704  -5.8704  -5.8704  -5.8094  -5.8094  -5.8092  -5.8092
    -5.7822  -5.7822  -5.7821  -5.7821   0.3979   0.3979   0.3979   0.3979
     0.6949   0.6949   0.6949   0.6949   0.8273   0.8273   0.8273   0.8273

     occupation numbers 
     1.0000   1.0000   1.0000   1.0000   1.0000   1.0000   1.0000   1.0000
     1.0000   1.0000   1.0000   1.0000   1.0000   1.0000   1.0000   1.0000
     1.0000   1.0000   1.0000   1.0000   1.0000   1.0000   1.0000   1.0000
     1.0000   1.0000   1.0000   1.0000   1.0000   1.0000   1.0000   1.0000

          k =-0.5000-0.5000-0.5000 ( 25768 PWs)   bands (ev):

   -19.0049 -19.0046 -19.0046 -19.0046  -9.2144  -9.2144  -9.2144  -9.2144
    -5.8089  -5.8089  -5.8089  -5.8087  -5.8087  -5.8087  -5.8087  -5.8087
    -5.7682  -5.7682  -5.7682  -5.7681   0.2479   0.2479   0.2479   0.2479
     0.6810   0.6810   0.6810   0.6810   0.6810   0.6810   0.6810   0.6810

     occupation numbers 
     1.0000   1.0000   1.0000   1.0000   1.0000   1.0000   1.0000   1.0000
     1.0000   1.0000   1.0000   1.0000   1.0000   1.0000   1.0000   1.0000
     1.0000   1.0000   1.0000   1.0000   1.0000   1.0000   1.0000   1.0000
     1.0000   1.0000   1.0000   1.0000   1.0000   1.0000   1.0000   1.0000

     highest occupied level (ev):     0.9878

!    total energy              =   -3179.61334406 Ry
     Harris-Foulkes estimate   =   -3179.61334406 Ry
     estimated scf accuracy    <       0.00000002 Ry

     total all-electron energy =   -119228.277361 Ry

     The total energy is the sum of the following terms:

     one-electron contribution =     -41.39905485 Ry
     hartree contribution      =      44.70126056 Ry
     xc contribution           =    -147.83416619 Ry
     ewald contribution        =    -197.52888987 Ry
     one-center paw contrib.   =   -2837.55249370 Ry
      -> PAW hartree energy AE =      25.67402314 Ry
      -> PAW hartree energy PS =     -25.56432532 Ry
      -> PAW xc energy AE      =    -383.53730978 Ry
      -> PAW xc energy PS      =      20.52107103 Ry
      -> total E_H with PAW    =      44.81095838 Ry
      -> total E_XC with PAW   =    -510.85040494 Ry

     convergence has been achieved in   7 iterations

     Forces acting on atoms (cartesian axes, Ry/au):

     atom    1 type  1   force =     0.00000000    0.00000000    0.00000000
     atom    2 type  1   force =     0.00000000    0.00000000    0.00000000
     atom    3 type  1   force =     0.00000000   -0.00000000    0.00000000
     atom    4 type  1   force =     0.00000000    0.00000000    0.00000000
     atom    5 type  2   force =     0.00000000    0.00000000    0.00000000
     atom    6 type  2   force =     0.00000000    0.00000000    0.00000000
     atom    7 type  2   force =     0.00000000    0.00000000    0.00000000
     atom    8 type  2   force =     0.00000000    0.00000000    0.00000000
     The non-local contrib.  to forces
     atom    1 type  1   force =     0.00000000    0.00000000    0.00000000
     atom    2 type  1   force =     0.00000000    0.00000000    0.00000000
     atom    3 type  1   force =     0.00000000    0.00000000    0.00000000
     atom    4 type  1   force =     0.00000000    0.00000000    0.00000000
     atom    5 type  2   force =     0.00000000    0.00000000    0.00000000
     atom    6 type  2   force =     0.00000000    0.00000000    0.00000000
     atom    7 type  2   force =     0.00000000    0.00000000    0.00000000
     atom    8 type  2   force =     0.00000000   -0.00000000   -0.00000000
     The ionic contribution  to forces
     atom    1 type  1   force =    -0.00000000   -0.00000000   -0.00000000
     atom    2 type  1   force =    -0.00000000    0.00000000    0.00000000
     atom    3 type  1   force =     0.00000000   -0.00000000    0.00000000
     atom    4 type  1   force =     0.00000000    0.00000000   -0.00000000
     atom    5 type  2   force =     0.00000000   -0.00000000   -0.00000000
     atom    6 type  2   force =     0.00000000    0.00000000    0.00000000
     atom    7 type  2   force =    -0.00000000   -0.00000000    0.00000000
     atom    8 type  2   force =    -0.00000000    0.00000000   -0.00000000
     The local contribution  to forces
     atom    1 type  1   force =     0.00000000    0.00000000    0.00000000
     atom    2 type  1   force =     0.00000000   -0.00000000   -0.00000000
     atom    3 type  1   force =    -0.00000000    0.00000000   -0.00000000
     atom    4 type  1   force =    -0.00000000   -0.00000000    0.00000000
     atom    5 type  2   force =     0.00000000    0.00000000    0.00000000
     atom    6 type  2   force =     0.00000000    0.00000000   -0.00000000
     atom    7 type  2   force =     0.00000000    0.00000000    0.00000000
     atom    8 type  2   force =     0.00000000    0.00000000    0.00000000
     The core correction contribution to forces
     atom    1 type  1   force =     0.00000000    0.00000000    0.00000000
     atom    2 type  1   force =     0.00000000   -0.00000000   -0.00000000
     atom    3 type  1   force =    -0.00000000    0.00000000   -0.00000000
     atom    4 type  1   force =    -0.00000000   -0.00000000    0.00000000
     atom    5 type  2   force =    -0.00000000    0.00000000    0.00000000
     atom    6 type  2   force =    -0.00000000   -0.00000000   -0.00000000
     atom    7 type  2   force =     0.00000000    0.00000000   -0.00000000
     atom    8 type  2   force =     0.00000000   -0.00000000    0.00000000
     The Hubbard contrib.    to forces
     atom    1 type  1   force =     0.00000000    0.00000000    0.00000000
     atom    2 type  1   force =     0.00000000    0.00000000    0.00000000
     atom    3 type  1   force =     0.00000000    0.00000000    0.00000000
     atom    4 type  1   force =     0.00000000    0.00000000    0.00000000
     atom    5 type  2   force =     0.00000000    0.00000000    0.00000000
     atom    6 type  2   force =     0.00000000    0.00000000    0.00000000
     atom    7 type  2   force =     0.00000000    0.00000000    0.00000000
     atom    8 type  2   force =     0.00000000    0.00000000    0.00000000
     The SCF correction term to forces
     atom    1 type  1   force =     0.00000000   -0.00000000    0.00000000
     atom    2 type  1   force =     0.00000000    0.00000000   -0.00000000
     atom    3 type  1   force =    -0.00000000   -0.00000000   -0.00000000
     atom    4 type  1   force =    -0.00000000   -0.00000000    0.00000000
     atom    5 type  2   force =     0.00000000   -0.00000000    0.00000000
     atom    6 type  2   force =     0.00000000    0.00000000   -0.00000000
     atom    7 type  2   force =     0.00000000    0.00000000   -0.00000000
     atom    8 type  2   force =     0.00000000    0.00000000    0.00000000

     Total force =     0.000000     Total SCF correction =     0.000000


     Computing stress (Cartesian axis) and pressure

          total   stress  (Ry/bohr**3)                   (kbar)     P=    0.71
   0.00000484   0.00000000   0.00000000          0.71      0.00      0.00
   0.00000000   0.00000484   0.00000000          0.00      0.71      0.00
   0.00000000   0.00000000   0.00000484          0.00      0.00      0.71

     kinetic stress (kbar)   2522.66      0.00      0.00
                                0.00   2522.66      0.00
                                0.00      0.00   2522.66

     local   stress (kbar)  -1291.83      0.00     -0.00
                                0.00  -1291.83     -0.00
                               -0.00     -0.00  -1291.83

     nonloc. stress (kbar)   2087.22      0.00      0.00
                                0.00   2087.22      0.00
                                0.00      0.00   2087.22

     hartree stress (kbar)    669.31      0.00      0.00
                                0.00    669.31      0.00
                                0.00      0.00    669.31

     exc-cor stress (kbar)   3651.85     -0.00     -0.00
                               -0.00   3651.85     -0.00
                               -0.00     -0.00   3651.85

     corecor stress (kbar)  -4680.92      0.00      0.00
                                0.00  -4680.92      0.00
                                0.00      0.00  -4680.92

     ewald   stress (kbar)  -2957.57     -0.00      0.00
                               -0.00  -2957.57      0.00
                                0.00      0.00  -2957.57

     hubbard stress (kbar)      0.00      0.00      0.00
                                0.00      0.00      0.00
                                0.00      0.00      0.00

     london  stress (kbar)      0.00      0.00      0.00
                                0.00      0.00      0.00
                                0.00      0.00      0.00

     DFT-D3  stress (kbar)      0.00      0.00      0.00
                                0.00      0.00      0.00
                                0.00      0.00      0.00

     XDM     stress (kbar)      0.00      0.00      0.00
                                0.00      0.00      0.00
                                0.00      0.00      0.00

     dft-nl  stress (kbar)      0.00      0.00      0.00
                                0.00      0.00      0.00
                                0.00      0.00      0.00

     TS-vdW  stress (kbar)      0.00      0.00      0.00
                                0.00      0.00      0.00
                                0.00      0.00      0.00



     number of scf cycles    =   2
     number of bfgs steps    =   1

     enthalpy old            =   -3179.6131865672 Ry
     enthalpy new            =   -3179.6133440580 Ry

     CASE: enthalpy_new < enthalpy_old

     new trust radius        =       0.0006169873 bohr
     new conv_thr            =       0.0000000100 Ry

     new unit-cell volume =   3275.45503 a.u.^3 (   485.37235 Ang^3 )
     density =      3.55527 g/cm^3

CELL_PARAMETERS (angstrom)
   7.858838151   0.000000000   0.000000000
   0.000000000   7.858838151   0.000000000
   0.000000000   0.000000000   7.858838151

ATOMIC_POSITIONS (alat)
Cs       0.000000000   0.000000000   0.000000000
Cs       0.000000000   0.499978379   0.499978379
Cs       0.499978379  -0.000000000   0.499978379
Cs       0.499978379   0.499978379   0.000000000
I        0.499978379   0.000000000   0.000000000
I        0.499978379   0.499978379   0.499978379
I        0.000000000   0.000000000   0.499978379
I        0.000000000   0.499978379   0.000000000



     Writing output data file CsSnI3.save/
     NEW-OLD atomic charge density approx. for the potential
     extrapolated charge   64.01032, renormalised to   64.00000

     total cpu time spent up to now is       29.7 secs

     Self-consistent Calculation

     iteration #  1     ecut=    60.00 Ry     beta= 0.50
     CG style diagonalization
     ethr =  1.00E-06,  avg # of iterations =  2.0

     Threshold (ethr) on eigenvalues was too large:
     Diagonalizing with lowered threshold

     CG style diagonalization
     ethr =  6.89E-10,  avg # of iterations =  3.8

     total cpu time spent up to now is       31.5 secs

     total energy              =   -3179.61334547 Ry
     Harris-Foulkes estimate   =   -3179.61077438 Ry
     estimated scf accuracy    <       0.00000075 Ry

     iteration #  2     ecut=    60.00 Ry     beta= 0.50
     CG style diagonalization
     ethr =  1.17E-09,  avg # of iterations =  4.4

     total cpu time spent up to now is       32.8 secs

     total energy              =   -3179.61334619 Ry
     Harris-Foulkes estimate   =   -3179.61334622 Ry
     estimated scf accuracy    <       0.00000005 Ry

     iteration #  3     ecut=    60.00 Ry     beta= 0.50
     CG style diagonalization
     ethr =  7.13E-11,  avg # of iterations =  7.2

     total cpu time spent up to now is       34.7 secs

     total energy              =   -3179.61334657 Ry
     Harris-Foulkes estimate   =   -3179.61334662 Ry
     estimated scf accuracy    <       0.00000016 Ry

     iteration #  4     ecut=    60.00 Ry     beta= 0.50
     CG style diagonalization
     ethr =  7.13E-11,  avg # of iterations =  3.9

     total cpu time spent up to now is       35.9 secs

     total energy              =   -3179.61334656 Ry
     Harris-Foulkes estimate   =   -3179.61334659 Ry
     estimated scf accuracy    <       0.00000007 Ry

     iteration #  5     ecut=    60.00 Ry     beta= 0.50
     CG style diagonalization
     ethr =  7.13E-11,  avg # of iterations =  3.7

     total cpu time spent up to now is       37.1 secs

     total energy              =   -3179.61334657 Ry
     Harris-Foulkes estimate   =   -3179.61334657 Ry
     estimated scf accuracy    <       0.00000001 Ry

     iteration #  6     ecut=    60.00 Ry     beta= 0.50
     CG style diagonalization
     ethr =  2.20E-11,  avg # of iterations =  5.5

     total cpu time spent up to now is       38.6 secs

     End of self-consistent calculation

          k = 0.0000 0.0000 0.0000 ( 25677 PWs)   bands (ev):

   -19.0123 -19.0038 -19.0038 -19.0038  -9.1811  -9.1516  -9.1516  -9.1516
    -5.9516  -5.9516  -5.9516  -5.8646  -5.8646  -5.8646  -5.8646  -5.8646
    -5.8646  -5.8060  -5.8060  -5.8060   0.6938   0.6938   0.6938   0.8889
     0.8889   0.8889   0.8889   0.8889   0.8889   0.9861   0.9861   0.9861

     occupation numbers 
     1.0000   1.0000   1.0000   1.0000   1.0000   1.0000   1.0000   1.0000
     1.0000   1.0000   1.0000   1.0000   1.0000   1.0000   1.0000   1.0000
     1.0000   1.0000   1.0000   1.0000   1.0000   1.0000   1.0000   1.0000
     1.0000   1.0000   1.0000   1.0000   1.0000   1.0000   1.0000   1.0000

          k = 0.0000 0.0000-0.5000 ( 25628 PWs)   bands (ev):

   -19.0080 -19.0080 -19.0038 -19.0037  -9.1858  -9.1858  -9.1707  -9.1706
    -5.9081  -5.9081  -5.9081  -5.9081  -5.8351  -5.8351  -5.8351  -5.8351
    -5.8039  -5.8039  -5.7905  -5.7905   0.5204   0.5204   0.5889   0.5889
     0.7681   0.7681   0.7681   0.7681   0.9219   0.9219   0.9219   0.9219

     occupation numbers 
     1.0000   1.0000   1.0000   1.0000   1.0000   1.0000   1.0000   1.0000
     1.0000   1.0000   1.0000   1.0000   1.0000   1.0000   1.0000   1.0000
     1.0000   1.0000   1.0000   1.0000   1.0000   1.0000   1.0000   1.0000
     1.0000   1.0000   1.0000   1.0000   1.0000   1.0000   1.0000   1.0000

          k = 0.0000-0.5000-0.5000 ( 25708 PWs)   bands (ev):

   -19.0058 -19.0058 -19.0058 -19.0058  -9.1972  -9.1972  -9.1972  -9.1972
    -5.8714  -5.8714  -5.8714  -5.8714  -5.8103  -5.8103  -5.8103  -5.8103
    -5.7832  -5.7832  -5.7832  -5.7832   0.3966   0.3966   0.3966   0.3966
     0.6934   0.6934   0.6934   0.6934   0.8258   0.8258   0.8258   0.8258

     occupation numbers 
     1.0000   1.0000   1.0000   1.0000   1.0000   1.0000   1.0000   1.0000
     1.0000   1.0000   1.0000   1.0000   1.0000   1.0000   1.0000   1.0000
     1.0000   1.0000   1.0000   1.0000   1.0000   1.0000   1.0000   1.0000
     1.0000   1.0000   1.0000   1.0000   1.0000   1.0000   1.0000   1.0000

          k =-0.5000-0.5000-0.5000 ( 25768 PWs)   bands (ev):

   -19.0057 -19.0057 -19.0057 -19.0057  -9.2160  -9.2160  -9.2160  -9.2160
    -5.8098  -5.8098  -5.8098  -5.8098  -5.8098  -5.8098  -5.8098  -5.8098
    -5.7693  -5.7693  -5.7693  -5.7693   0.2466   0.2466   0.2466   0.2467
     0.6795   0.6795   0.6795   0.6795   0.6795   0.6795   0.6795   0.6795

     occupation numbers 
     1.0000   1.0000   1.0000   1.0000   1.0000   1.0000   1.0000   1.0000
     1.0000   1.0000   1.0000   1.0000   1.0000   1.0000   1.0000   1.0000
     1.0000   1.0000   1.0000   1.0000   1.0000   1.0000   1.0000   1.0000
     1.0000   1.0000   1.0000   1.0000   1.0000   1.0000   1.0000   1.0000

     highest occupied level (ev):     0.9861

!    total energy              =   -3179.61334658 Ry
     Harris-Foulkes estimate   =   -3179.61334659 Ry
     estimated scf accuracy    <          3.9E-09 Ry

     total all-electron energy =   -119228.277364 Ry

     The total energy is the sum of the following terms:

     one-electron contribution =     -41.41476822 Ry
     hartree contribution      =      44.70524682 Ry
     xc contribution           =    -147.83332097 Ry
     ewald contribution        =    -197.51824225 Ry
     one-center paw contrib.   =   -2837.55226197 Ry
      -> PAW hartree energy AE =      25.67275593 Ry
      -> PAW hartree energy PS =     -25.56306836 Ry
      -> PAW xc energy AE      =    -383.53706414 Ry
      -> PAW xc energy PS      =      20.52087669 Ry
      -> total E_H with PAW    =      44.81493440 Ry
      -> total E_XC with PAW   =    -510.84950842 Ry

     convergence has been achieved in   6 iterations

     Forces acting on atoms (cartesian axes, Ry/au):

     atom    1 type  1   force =     0.00000000    0.00000000    0.00000000
     atom    2 type  1   force =     0.00000000    0.00000000    0.00000000
     atom    3 type  1   force =     0.00000000    0.00000000    0.00000000
     atom    4 type  1   force =     0.00000000    0.00000000    0.00000000
     atom    5 type  2   force =     0.00000000    0.00000000    0.00000000
     atom    6 type  2   force =     0.00000000    0.00000000    0.00000000
     atom    7 type  2   force =     0.00000000    0.00000000    0.00000000
     atom    8 type  2   force =     0.00000000    0.00000000    0.00000000
     The non-local contrib.  to forces
     atom    1 type  1   force =     0.00000000    0.00000000    0.00000000
     atom    2 type  1   force =     0.00000000    0.00000000    0.00000000
     atom    3 type  1   force =     0.00000000    0.00000000    0.00000000
     atom    4 type  1   force =     0.00000000    0.00000000    0.00000000
     atom    5 type  2   force =     0.00000000    0.00000000    0.00000000
     atom    6 type  2   force =     0.00000000   -0.00000000    0.00000000
     atom    7 type  2   force =     0.00000000    0.00000000    0.00000000
     atom    8 type  2   force =     0.00000000    0.00000000   -0.00000000
     The ionic contribution  to forces
     atom    1 type  1   force =    -0.00000000   -0.00000000   -0.00000000
     atom    2 type  1   force =    -0.00000000    0.00000000    0.00000000
     atom    3 type  1   force =     0.00000000   -0.00000000    0.00000000
     atom    4 type  1   force =     0.00000000    0.00000000   -0.00000000
     atom    5 type  2   force =     0.00000000   -0.00000000   -0.00000000
     atom    6 type  2   force =     0.00000000    0.00000000    0.00000000
     atom    7 type  2   force =    -0.00000000   -0.00000000    0.00000000
     atom    8 type  2   force =    -0.00000000    0.00000000   -0.00000000
     The local contribution  to forces
     atom    1 type  1   force =     0.00000000    0.00000000    0.00000000
     atom    2 type  1   force =     0.00000000   -0.00000000   -0.00000000
     atom    3 type  1   force =    -0.00000000    0.00000000   -0.00000000
     atom    4 type  1   force =    -0.00000000   -0.00000000    0.00000000
     atom    5 type  2   force =     0.00000000    0.00000000    0.00000000
     atom    6 type  2   force =     0.00000000    0.00000000    0.00000000
     atom    7 type  2   force =     0.00000000    0.00000000    0.00000000
     atom    8 type  2   force =     0.00000000    0.00000000    0.00000000
     The core correction contribution to forces
     atom    1 type  1   force =     0.00000000    0.00000000    0.00000000
     atom    2 type  1   force =     0.00000000   -0.00000000   -0.00000000
     atom    3 type  1   force =    -0.00000000    0.00000000   -0.00000000
     atom    4 type  1   force =    -0.00000000   -0.00000000    0.00000000
     atom    5 type  2   force =    -0.00000000    0.00000000    0.00000000
     atom    6 type  2   force =    -0.00000000   -0.00000000   -0.00000000
     atom    7 type  2   force =     0.00000000    0.00000000   -0.00000000
     atom    8 type  2   force =     0.00000000   -0.00000000    0.00000000
     The Hubbard contrib.    to forces
     atom    1 type  1   force =     0.00000000    0.00000000    0.00000000
     atom    2 type  1   force =     0.00000000    0.00000000    0.00000000
     atom    3 type  1   force =     0.00000000    0.00000000    0.00000000
     atom    4 type  1   force =     0.00000000    0.00000000    0.00000000
     atom    5 type  2   force =     0.00000000    0.00000000    0.00000000
     atom    6 type  2   force =     0.00000000    0.00000000    0.00000000
     atom    7 type  2   force =     0.00000000    0.00000000    0.00000000
     atom    8 type  2   force =     0.00000000    0.00000000    0.00000000
     The SCF correction term to forces
     atom    1 type  1   force =     0.00000000    0.00000000   -0.00000000
     atom    2 type  1   force =     0.00000000   -0.00000000   -0.00000000
     atom    3 type  1   force =    -0.00000000    0.00000000   -0.00000000
     atom    4 type  1   force =    -0.00000000   -0.00000000    0.00000000
     atom    5 type  2   force =    -0.00000000    0.00000000    0.00000000
     atom    6 type  2   force =    -0.00000000   -0.00000000   -0.00000000
     atom    7 type  2   force =     0.00000000    0.00000000   -0.00000000
     atom    8 type  2   force =     0.00000000   -0.00000000    0.00000000

     Total force =     0.000000     Total SCF correction =     0.000000


     Computing stress (Cartesian axis) and pressure

          total   stress  (Ry/bohr**3)                   (kbar)     P=    0.63
   0.00000426   0.00000000   0.00000000          0.63      0.00      0.00
   0.00000000   0.00000426   0.00000000          0.00      0.63      0.00
   0.00000000   0.00000000   0.00000426          0.00      0.00      0.63

     kinetic stress (kbar)   2522.16      0.00      0.00
                                0.00   2522.16      0.00
                                0.00      0.00   2522.16

     local   stress (kbar)  -1291.83     -0.00     -0.00
                               -0.00  -1291.83     -0.00
                               -0.00     -0.00  -1291.83

     nonloc. stress (kbar)   2086.85      0.00      0.00
                                0.00   2086.85      0.00
                                0.00      0.00   2086.85

     hartree stress (kbar)    669.26      0.00      0.00
                                0.00    669.26     -0.00
                                0.00     -0.00    669.26

     exc-cor stress (kbar)   3651.26     -0.00     -0.00
                               -0.00   3651.26     -0.00
                               -0.00     -0.00   3651.26

     corecor stress (kbar)  -4680.15      0.00     -0.00
                                0.00  -4680.15      0.00
                               -0.00      0.00  -4680.15

     ewald   stress (kbar)  -2956.94     -0.00     -0.00
                               -0.00  -2956.94      0.00
                               -0.00      0.00  -2956.94

     hubbard stress (kbar)      0.00      0.00      0.00
                                0.00      0.00      0.00
                                0.00      0.00      0.00

     london  stress (kbar)      0.00      0.00      0.00
                                0.00      0.00      0.00
                                0.00      0.00      0.00

     DFT-D3  stress (kbar)      0.00      0.00      0.00
                                0.00      0.00      0.00
                                0.00      0.00      0.00

     XDM     stress (kbar)      0.00      0.00      0.00
                                0.00      0.00      0.00
                                0.00      0.00      0.00

     dft-nl  stress (kbar)      0.00      0.00      0.00
                                0.00      0.00      0.00
                                0.00      0.00      0.00

     TS-vdW  stress (kbar)      0.00      0.00      0.00
                                0.00      0.00      0.00
                                0.00      0.00      0.00



     number of scf cycles    =   3
     number of bfgs steps    =   2

     enthalpy old            =   -3179.6133440581 Ry
     enthalpy new            =   -3179.6133465832 Ry

     CASE: enthalpy_new < enthalpy_old


     WARNING: bfgs curvature condition failed, Theta= 0.909
     new trust radius        =       0.0006787043 bohr
     new conv_thr            =       0.0000000100 Ry

     new unit-cell volume =   3276.03771 a.u.^3 (   485.45870 Ang^3 )
     density =      3.55464 g/cm^3

CELL_PARAMETERS (angstrom)
   7.859304137   0.000000000   0.000000000
   0.000000000   7.859304137   0.000000000
   0.000000000   0.000000000   7.859304137

ATOMIC_POSITIONS (alat)
Cs       0.000000000   0.000000000   0.000000000
Cs       0.000000000   0.500008025   0.500008025
Cs       0.500008025  -0.000000000   0.500008025
Cs       0.500008025   0.500008025   0.000000000
I        0.500008025   0.000000000   0.000000000
I        0.500008025   0.500008025   0.500008025
I        0.000000000   0.000000000   0.500008025
I        0.000000000   0.500008025   0.000000000



     Writing output data file CsSnI3.save/
     NEW-OLD atomic charge density approx. for the potential
     extrapolated charge   64.01135, renormalised to   64.00000

     total cpu time spent up to now is       41.1 secs

     Self-consistent Calculation

     iteration #  1     ecut=    60.00 Ry     beta= 0.50
     CG style diagonalization
     ethr =  1.00E-06,  avg # of iterations =  2.0

     Threshold (ethr) on eigenvalues was too large:
     Diagonalizing with lowered threshold

     CG style diagonalization
     ethr =  8.41E-10,  avg # of iterations =  2.5

     total cpu time spent up to now is       42.7 secs

     total energy              =   -3179.61334784 Ry
     Harris-Foulkes estimate   =   -3179.61051761 Ry
     estimated scf accuracy    <       0.00000059 Ry

     iteration #  2     ecut=    60.00 Ry     beta= 0.50
     CG style diagonalization
     ethr =  9.23E-10,  avg # of iterations =  4.0

     total cpu time spent up to now is       43.9 secs

     total energy              =   -3179.61334876 Ry
     Harris-Foulkes estimate   =   -3179.61334883 Ry
     estimated scf accuracy    <       0.00000020 Ry

     iteration #  3     ecut=    60.00 Ry     beta= 0.50
     CG style diagonalization
     ethr =  3.06E-10,  avg # of iterations =  5.5

     total cpu time spent up to now is       45.4 secs

     total energy              =   -3179.61334900 Ry
     Harris-Foulkes estimate   =   -3179.61334904 Ry
     estimated scf accuracy    <       0.00000017 Ry

     iteration #  4     ecut=    60.00 Ry     beta= 0.50
     CG style diagonalization
     ethr =  2.72E-10,  avg # of iterations =  3.5

     total cpu time spent up to now is       46.5 secs

     total energy              =   -3179.61334900 Ry
     Harris-Foulkes estimate   =   -3179.61334903 Ry
     estimated scf accuracy    <       0.00000010 Ry

     iteration #  5     ecut=    60.00 Ry     beta= 0.50
     CG style diagonalization
     ethr =  1.63E-10,  avg # of iterations =  3.6

     total cpu time spent up to now is       47.7 secs

     total energy              =   -3179.61334901 Ry
     Harris-Foulkes estimate   =   -3179.61334901 Ry
     estimated scf accuracy    <       0.00000002 Ry

     iteration #  6     ecut=    60.00 Ry     beta= 0.50
     CG style diagonalization
     ethr =  2.99E-11,  avg # of iterations =  5.6

     total cpu time spent up to now is       49.2 secs

     End of self-consistent calculation

          k = 0.0000 0.0000 0.0000 ( 25677 PWs)   bands (ev):

   -19.0139 -19.0055 -19.0055 -19.0055  -9.1821  -9.1526  -9.1526  -9.1526
    -5.9531  -5.9531  -5.9531  -5.8662  -5.8662  -5.8662  -5.8661  -5.8661
    -5.8661  -5.8075  -5.8075  -5.8075   0.6927   0.6927   0.6927   0.8877
     0.8877   0.8877   0.8877   0.8877   0.8877   0.9850   0.9850   0.9850

     occupation numbers 
     1.0000   1.0000   1.0000   1.0000   1.0000   1.0000   1.0000   1.0000
     1.0000   1.0000   1.0000   1.0000   1.0000   1.0000   1.0000   1.0000
     1.0000   1.0000   1.0000   1.0000   1.0000   1.0000   1.0000   1.0000
     1.0000   1.0000   1.0000   1.0000   1.0000   1.0000   1.0000   1.0000

          k = 0.0000 0.0000-0.5000 ( 25628 PWs)   bands (ev):

   -19.0096 -19.0096 -19.0054 -19.0054  -9.1868  -9.1868  -9.1717  -9.1716
    -5.9096  -5.9096  -5.9096  -5.9096  -5.8366  -5.8366  -5.8366  -5.8366
    -5.8055  -5.8055  -5.7921  -5.7921   0.5195   0.5195   0.5879   0.5879
     0.7670   0.7670   0.7670   0.7670   0.9208   0.9208   0.9208   0.9208

     occupation numbers 
     1.0000   1.0000   1.0000   1.0000   1.0000   1.0000   1.0000   1.0000
     1.0000   1.0000   1.0000   1.0000   1.0000   1.0000   1.0000   1.0000
     1.0000   1.0000   1.0000   1.0000   1.0000   1.0000   1.0000   1.0000
     1.0000   1.0000   1.0000   1.0000   1.0000   1.0000   1.0000   1.0000

          k = 0.0000-0.5000-0.5000 ( 25708 PWs)   bands (ev):

   -19.0074 -19.0074 -19.0074 -19.0074  -9.1982  -9.1982  -9.1982  -9.1982
    -5.8729  -5.8729  -5.8729  -5.8729  -5.8119  -5.8119  -5.8119  -5.8119
    -5.7848  -5.7848  -5.7848  -5.7848   0.3957   0.3957   0.3957   0.3957
     0.6924   0.6924   0.6925   0.6925   0.8247   0.8247   0.8247   0.8247

     occupation numbers 
     1.0000   1.0000   1.0000   1.0000   1.0000   1.0000   1.0000   1.0000
     1.0000   1.0000   1.0000   1.0000   1.0000   1.0000   1.0000   1.0000
     1.0000   1.0000   1.0000   1.0000   1.0000   1.0000   1.0000   1.0000
     1.0000   1.0000   1.0000   1.0000   1.0000   1.0000   1.0000   1.0000

          k =-0.5000-0.5000-0.5000 ( 25768 PWs)   bands (ev):

   -19.0073 -19.0073 -19.0073 -19.0073  -9.2170  -9.2170  -9.2170  -9.2170
    -5.8114  -5.8114  -5.8114  -5.8114  -5.8114  -5.8114  -5.8114  -5.8114
    -5.7709  -5.7709  -5.7709  -5.7709   0.2458   0.2458   0.2458   0.2458
     0.6785   0.6785   0.6785   0.6785   0.6785   0.6785   0.6785   0.6785

     occupation numbers 
     1.0000   1.0000   1.0000   1.0000   1.0000   1.0000   1.0000   1.0000
     1.0000   1.0000   1.0000   1.0000   1.0000   1.0000   1.0000   1.0000
     1.0000   1.0000   1.0000   1.0000   1.0000   1.0000   1.0000   1.0000
     1.0000   1.0000   1.0000   1.0000   1.0000   1.0000   1.0000   1.0000

     highest occupied level (ev):     0.9850

!    total energy              =   -3179.61334903 Ry
     Harris-Foulkes estimate   =   -3179.61334903 Ry
     estimated scf accuracy    <          3.3E-09 Ry

     total all-electron energy =   -119228.277366 Ry

     The total energy is the sum of the following terms:

     one-electron contribution =     -41.43283033 Ry
     hartree contribution      =      44.71140442 Ry
     xc contribution           =    -147.83313509 Ry
     ewald contribution        =    -197.50653119 Ry
     one-center paw contrib.   =   -2837.55225684 Ry
      -> PAW hartree energy AE =      25.67339005 Ry
      -> PAW hartree energy PS =     -25.56370482 Ry
      -> PAW xc energy AE      =    -383.53714371 Ry
      -> PAW xc energy PS      =      20.52095676 Ry
      -> total E_H with PAW    =      44.82108964 Ry
      -> total E_XC with PAW   =    -510.84932205 Ry

     convergence has been achieved in   6 iterations

     Forces acting on atoms (cartesian axes, Ry/au):

     atom    1 type  1   force =     0.00000000    0.00000000    0.00000000
     atom    2 type  1   force =     0.00000000    0.00000000    0.00000000
     atom    3 type  1   force =     0.00000000    0.00000000   -0.00000000
     atom    4 type  1   force =     0.00000000    0.00000000   -0.00000000
     atom    5 type  2   force =     0.00000000    0.00000000    0.00000000
     atom    6 type  2   force =     0.00000000    0.00000000    0.00000000
     atom    7 type  2   force =     0.00000000    0.00000000    0.00000000
     atom    8 type  2   force =     0.00000000    0.00000000    0.00000000
     The non-local contrib.  to forces
     atom    1 type  1   force =     0.00000000    0.00000000    0.00000000
     atom    2 type  1   force =     0.00000000    0.00000000   -0.00000000
     atom    3 type  1   force =     0.00000000    0.00000000    0.00000000
     atom    4 type  1   force =     0.00000000    0.00000000    0.00000000
     atom    5 type  2   force =     0.00000000    0.00000000   -0.00000000
     atom    6 type  2   force =     0.00000000    0.00000000   -0.00000000
     atom    7 type  2   force =     0.00000000    0.00000000   -0.00000000
     atom    8 type  2   force =     0.00000000    0.00000000    0.00000000
     The ionic contribution  to forces
     atom    1 type  1   force =    -0.00000000   -0.00000000   -0.00000000
     atom    2 type  1   force =    -0.00000000    0.00000000    0.00000000
     atom    3 type  1   force =     0.00000000   -0.00000000    0.00000000
     atom    4 type  1   force =     0.00000000    0.00000000   -0.00000000
     atom    5 type  2   force =     0.00000000   -0.00000000   -0.00000000
     atom    6 type  2   force =     0.00000000    0.00000000    0.00000000
     atom    7 type  2   force =    -0.00000000   -0.00000000    0.00000000
     atom    8 type  2   force =    -0.00000000    0.00000000   -0.00000000
     The local contribution  to forces
     atom    1 type  1   force =     0.00000000    0.00000000    0.00000000
[...]

     iteration # 15     ecut=    60.00 Ry     beta= 0.50
     CG style diagonalization
     ethr =  5.75E-09,  avg # of iterations =  3.4

     total cpu time spent up to now is      128.7 secs

     total energy              =   -3179.61337258 Ry
     Harris-Foulkes estimate   =   -3179.61337306 Ry
     estimated scf accuracy    <       0.00001005 Ry

     iteration # 16     ecut=    60.00 Ry     beta= 0.50
     CG style diagonalization
     ethr =  5.75E-09,  avg # of iterations =  3.3

     total cpu time spent up to now is      129.8 secs

     total energy              =   -3179.61337438 Ry
     Harris-Foulkes estimate   =   -3179.61337297 Ry
     estimated scf accuracy    <       0.00000762 Ry

     iteration # 17     ecut=    60.00 Ry     beta= 0.50
     CG style diagonalization
     ethr =  5.75E-09,  avg # of iterations =  3.0

     total cpu time spent up to now is      130.8 secs

     total energy              =   -3179.61337014 Ry
     Harris-Foulkes estimate   =   -3179.61337443 Ry
     estimated scf accuracy    <       0.00000930 Ry

     iteration # 18     ecut=    60.00 Ry     beta= 0.50
     CG style diagonalization
     ethr =  5.75E-09,  avg # of iterations =  3.5

     total cpu time spent up to now is      131.9 secs

     total energy              =   -3179.61337072 Ry
     Harris-Foulkes estimate   =   -3179.61337074 Ry
     estimated scf accuracy    <       0.00000222 Ry

     iteration # 19     ecut=    60.00 Ry     beta= 0.50
     CG style diagonalization
     ethr =  3.47E-09,  avg # of iterations =  3.5

     total cpu time spent up to now is      133.0 secs

     total energy              =   -3179.61337024 Ry
     Harris-Foulkes estimate   =   -3179.61337104 Ry
     estimated scf accuracy    <       0.00000166 Ry

     iteration # 20     ecut=    60.00 Ry     beta= 0.50
     CG style diagonalization
     ethr =  2.60E-09,  avg # of iterations =  3.7

     total cpu time spent up to now is      134.1 secs

     total energy              =   -3179.61337049 Ry
     Harris-Foulkes estimate   =   -3179.61337054 Ry
     estimated scf accuracy    <       0.00000040 Ry

     iteration # 21     ecut=    60.00 Ry     beta= 0.50
     CG style diagonalization
     ethr =  6.28E-10,  avg # of iterations =  5.5

     total cpu time spent up to now is      135.6 secs

     total energy              =   -3179.61337080 Ry
     Harris-Foulkes estimate   =   -3179.61337117 Ry
     estimated scf accuracy    <       0.00000099 Ry

     iteration # 22     ecut=    60.00 Ry     beta= 0.50
     CG style diagonalization
     ethr =  6.28E-10,  avg # of iterations =  3.4

     total cpu time spent up to now is      136.7 secs

     total energy              =   -3179.61337085 Ry
     Harris-Foulkes estimate   =   -3179.61337086 Ry
     estimated scf accuracy    <       0.00000042 Ry

     iteration # 23     ecut=    60.00 Ry     beta= 0.50
     CG style diagonalization
     ethr =  6.28E-10,  avg # of iterations =  3.2

     total cpu time spent up to now is      137.8 secs

     total energy              =   -3179.61337076 Ry
     Harris-Foulkes estimate   =   -3179.61337088 Ry
     estimated scf accuracy    <       0.00000039 Ry

     iteration # 24     ecut=    60.00 Ry     beta= 0.50
     CG style diagonalization
     ethr =  6.16E-10,  avg # of iterations =  3.5

     total cpu time spent up to now is      138.8 secs

     total energy              =   -3179.61337071 Ry
     Harris-Foulkes estimate   =   -3179.61337082 Ry
     estimated scf accuracy    <       0.00000020 Ry

     iteration # 25     ecut=    60.00 Ry     beta= 0.50
     CG style diagonalization
     ethr =  3.19E-10,  avg # of iterations =  4.1

     total cpu time spent up to now is      140.1 secs

     total energy              =   -3179.61337086 Ry
     Harris-Foulkes estimate   =   -3179.61337082 Ry
     estimated scf accuracy    <       0.00000015 Ry

     iteration # 26     ecut=    60.00 Ry     beta= 0.50
     CG style diagonalization
     ethr =  2.34E-10,  avg # of iterations =  3.8

     total cpu time spent up to now is      141.2 secs

     total energy              =   -3179.61337078 Ry
     Harris-Foulkes estimate   =   -3179.61337097 Ry
     estimated scf accuracy    <       0.00000036 Ry

     iteration # 27     ecut=    60.00 Ry     beta= 0.50
     CG style diagonalization
     ethr =  2.34E-10,  avg # of iterations =  3.6

     total cpu time spent up to now is      142.4 secs

     total energy              =   -3179.61337078 Ry
     Harris-Foulkes estimate   =   -3179.61337082 Ry
     estimated scf accuracy    <       0.00000011 Ry

     iteration # 28     ecut=    60.00 Ry     beta= 0.50
     CG style diagonalization
     ethr =  1.79E-10,  avg # of iterations =  3.2

     total cpu time spent up to now is      143.4 secs

     total energy              =   -3179.61337082 Ry
     Harris-Foulkes estimate   =   -3179.61337079 Ry
     estimated scf accuracy    <       0.00000005 Ry

     iteration # 29     ecut=    60.00 Ry     beta= 0.50
     CG style diagonalization
     ethr =  8.28E-11,  avg # of iterations =  3.2

     total cpu time spent up to now is      144.5 secs

     total energy              =   -3179.61337077 Ry
     Harris-Foulkes estimate   =   -3179.61337082 Ry
     estimated scf accuracy    <       0.00000008 Ry

     iteration # 30     ecut=    60.00 Ry     beta= 0.50
     CG style diagonalization
     ethr =  8.28E-11,  avg # of iterations =  3.9

     total cpu time spent up to now is      145.7 secs

     End of self-consistent calculation

          k = 0.0000 0.0000 0.0000 ( 25677 PWs)   bands (ev):

   -19.0253 -19.0170 -19.0170 -19.0169  -9.1898  -9.1604  -9.1604  -9.1604
    -5.9634  -5.9634  -5.9634  -5.8770  -5.8770  -5.8770  -5.8770  -5.8770
    -5.8770  -5.8188  -5.8188  -5.8188   0.6840   0.6840   0.6840   0.8789
     0.8789   0.8789   0.8789   0.8789   0.8789   0.9763   0.9763   0.9763

     occupation numbers 
     1.0000   1.0000   1.0000   1.0000   1.0000   1.0000   1.0000   1.0000
     1.0000   1.0000   1.0000   1.0000   1.0000   1.0000   1.0000   1.0000
     1.0000   1.0000   1.0000   1.0000   1.0000   1.0000   1.0000   1.0000
     1.0000   1.0000   1.0000   1.0000   1.0000   1.0000   1.0000   1.0000

          k = 0.0000 0.0000-0.4998 ( 25796 PWs)   bands (ev):

   -19.0210 -19.0210 -19.0169 -19.0168  -9.1944  -9.1944  -9.1793  -9.1793
    -5.9202  -5.9202  -5.9202  -5.9202  -5.8477  -5.8477  -5.8476  -5.8476
    -5.8168  -5.8167  -5.8035  -5.8034   0.5121   0.5121   0.5804   0.5805
     0.7584   0.7584   0.7584   0.7584   0.9121   0.9121   0.9121   0.9121

     occupation numbers 
     1.0000   1.0000   1.0000   1.0000   1.0000   1.0000   1.0000   1.0000
     1.0000   1.0000   1.0000   1.0000   1.0000   1.0000   1.0000   1.0000
     1.0000   1.0000   1.0000   1.0000   1.0000   1.0000   1.0000   1.0000
     1.0000   1.0000   1.0000   1.0000   1.0000   1.0000   1.0000   1.0000

          k = 0.0000-0.4998-0.4998 ( 25788 PWs)   bands (ev):

   -19.0189 -19.0189 -19.0189 -19.0188  -9.2057  -9.2057  -9.2057  -9.2057
    -5.8838  -5.8838  -5.8838  -5.8837  -5.8231  -5.8231  -5.8231  -5.8231
    -5.7963  -5.7963  -5.7962  -5.7962   0.3886   0.3886   0.3886   0.3886
     0.6848   0.6848   0.6848   0.6848   0.8161   0.8161   0.8161   0.8161

     occupation numbers 
     1.0000   1.0000   1.0000   1.0000   1.0000   1.0000   1.0000   1.0000
     1.0000   1.0000   1.0000   1.0000   1.0000   1.0000   1.0000   1.0000
     1.0000   1.0000   1.0000   1.0000   1.0000   1.0000   1.0000   1.0000
     1.0000   1.0000   1.0000   1.0000   1.0000   1.0000   1.0000   1.0000

          k =-0.4998-0.4998-0.4998 ( 25768 PWs)   bands (ev):

   -19.0188 -19.0188 -19.0188 -19.0187  -9.2244  -9.2244  -9.2244  -9.2244
    -5.8226  -5.8226  -5.8226  -5.8226  -5.8226  -5.8226  -5.8226  -5.8226
    -5.7825  -5.7825  -5.7825  -5.7825   0.2390   0.2390   0.2390   0.2390
     0.6710   0.6710   0.6710   0.6710   0.6710   0.6710   0.6710   0.6710

     occupation numbers 
     1.0000   1.0000   1.0000   1.0000   1.0000   1.0000   1.0000   1.0000
     1.0000   1.0000   1.0000   1.0000   1.0000   1.0000   1.0000   1.0000
     1.0000   1.0000   1.0000   1.0000   1.0000   1.0000   1.0000   1.0000
     1.0000   1.0000   1.0000   1.0000   1.0000   1.0000   1.0000   1.0000

     highest occupied level (ev):     0.9763

!    total energy              =   -3179.61337078 Ry
     Harris-Foulkes estimate   =   -3179.61337078 Ry
     estimated scf accuracy    <          5.1E-09 Ry

     total all-electron energy =   -119228.277388 Ry

     The total energy is the sum of the following terms:

     one-electron contribution =     -41.57805949 Ry
     hartree contribution      =      44.75968847 Ry
     xc contribution           =    -147.83087510 Ry
     ewald contribution        =    -197.41208781 Ry
     one-center paw contrib.   =   -2837.55203685 Ry
      -> PAW hartree energy AE =      25.67109666 Ry
      -> PAW hartree energy PS =     -25.56140856 Ry
      -> PAW xc energy AE      =    -383.53681228 Ry
      -> PAW xc energy PS      =      20.52064113 Ry
      -> total E_H with PAW    =      44.86937658 Ry
      -> total E_XC with PAW   =    -510.84704625 Ry

     convergence has been achieved in  30 iterations

     Forces acting on atoms (cartesian axes, Ry/au):

     atom    1 type  1   force =     0.00000000    0.00000000    0.00000000
     atom    2 type  1   force =     0.00000000    0.00000000   -0.00000000
     atom    3 type  1   force =     0.00000000    0.00000000    0.00000000
     atom    4 type  1   force =     0.00000000    0.00000000    0.00000000
     atom    5 type  2   force =     0.00000000    0.00000000    0.00000000
     atom    6 type  2   force =     0.00000000    0.00000000    0.00000000
     atom    7 type  2   force =     0.00000000    0.00000000    0.00000000
     atom    8 type  2   force =     0.00000000    0.00000000    0.00000000
     The non-local contrib.  to forces
     atom    1 type  1   force =     0.00000000    0.00000000    0.00000000
     atom    2 type  1   force =     0.00000000    0.00000000    0.00000000
     atom    3 type  1   force =     0.00000000   -0.00000000   -0.00000000
     atom    4 type  1   force =     0.00000000    0.00000000    0.00000000
     atom    5 type  2   force =     0.00000000    0.00000000    0.00000000
     atom    6 type  2   force =     0.00000000    0.00000000    0.00000000
     atom    7 type  2   force =     0.00000000    0.00000000    0.00000000
     atom    8 type  2   force =     0.00000000    0.00000000    0.00000000
     The ionic contribution  to forces
     atom    1 type  1   force =    -0.00000000   -0.00000000   -0.00000000
     atom    2 type  1   force =    -0.00000000    0.00000000    0.00000000
     atom    3 type  1   force =     0.00000000   -0.00000000    0.00000000
     atom    4 type  1   force =     0.00000000    0.00000000   -0.00000000
     atom    5 type  2   force =     0.00000000   -0.00000000   -0.00000000
     atom    6 type  2   force =     0.00000000    0.00000000    0.00000000
     atom    7 type  2   force =    -0.00000000   -0.00000000    0.00000000
     atom    8 type  2   force =    -0.00000000    0.00000000   -0.00000000
     The local contribution  to forces
     atom    1 type  1   force =     0.00000000    0.00000000    0.00000000
     atom    2 type  1   force =     0.00000000    0.00000000    0.00000000
     atom    3 type  1   force =     0.00000000    0.00000000    0.00000000
     atom    4 type  1   force =     0.00000000    0.00000000    0.00000000
     atom    5 type  2   force =     0.00000000    0.00000000    0.00000000
     atom    6 type  2   force =     0.00000000    0.00000000    0.00000000
     atom    7 type  2   force =     0.00000000    0.00000000    0.00000000
     atom    8 type  2   force =     0.00000000    0.00000000    0.00000000
     The core correction contribution to forces
     atom    1 type  1   force =     0.00000000    0.00000000    0.00000000
     atom    2 type  1   force =     0.00000000   -0.00000000   -0.00000000
     atom    3 type  1   force =    -0.00000000    0.00000000   -0.00000000
     atom    4 type  1   force =    -0.00000000   -0.00000000    0.00000000
     atom    5 type  2   force =    -0.00000000    0.00000000    0.00000000
     atom    6 type  2   force =    -0.00000000   -0.00000000   -0.00000000
     atom    7 type  2   force =     0.00000000    0.00000000   -0.00000000
     atom    8 type  2   force =     0.00000000   -0.00000000    0.00000000
     The Hubbard contrib.    to forces
     atom    1 type  1   force =     0.00000000    0.00000000    0.00000000
     atom    2 type  1   force =     0.00000000    0.00000000    0.00000000
     atom    3 type  1   force =     0.00000000    0.00000000    0.00000000
     atom    4 type  1   force =     0.00000000    0.00000000    0.00000000
     atom    5 type  2   force =     0.00000000    0.00000000    0.00000000
     atom    6 type  2   force =     0.00000000    0.00000000    0.00000000
     atom    7 type  2   force =     0.00000000    0.00000000    0.00000000
     atom    8 type  2   force =     0.00000000    0.00000000    0.00000000
     The SCF correction term to forces
     atom    1 type  1   force =    -0.00000000   -0.00000000   -0.00000000
     atom    2 type  1   force =     0.00000000   -0.00000000   -0.00000000
     atom    3 type  1   force =     0.00000000   -0.00000000   -0.00000000
     atom    4 type  1   force =    -0.00000000    0.00000000   -0.00000000
     atom    5 type  2   force =    -0.00000000   -0.00000000   -0.00000000
     atom    6 type  2   force =    -0.00000000    0.00000000    0.00000000
     atom    7 type  2   force =     0.00000000   -0.00000000    0.00000000
     atom    8 type  2   force =    -0.00000000    0.00000000   -0.00000000

     Total force =     0.000000     Total SCF correction =     0.000000


     Computing stress (Cartesian axis) and pressure

          total   stress  (Ry/bohr**3)                   (kbar)     P=    0.48
   0.00000326   0.00000000   0.00000000          0.48      0.00      0.00
   0.00000000   0.00000326   0.00000000          0.00      0.48      0.00
   0.00000000   0.00000000   0.00000326          0.00      0.00      0.48

     kinetic stress (kbar)   2517.97      0.00      0.00
                                0.00   2517.97      0.00
                                0.00      0.00   2517.97

     local   stress (kbar)  -1292.12      0.00     -0.00
                                0.00  -1292.12     -0.00
                               -0.00     -0.00  -1292.12

     nonloc. stress (kbar)   2083.43      0.00      0.00
                                0.00   2083.43      0.00
                                0.00      0.00   2083.43

     hartree stress (kbar)    668.99      0.00     -0.00
                                0.00    668.99     -0.00
                               -0.00     -0.00    668.99

     exc-cor stress (kbar)   3645.40     -0.00      0.00
                               -0.00   3645.40      0.00
                                0.00      0.00   3645.40

     corecor stress (kbar)  -4672.60     -0.00      0.00
                               -0.00  -4672.60      0.00
                                0.00      0.00  -4672.60

     ewald   stress (kbar)  -2950.58      0.00      0.00
                                0.00  -2950.58      0.00
                                0.00      0.00  -2950.58

     hubbard stress (kbar)      0.00      0.00      0.00
                                0.00      0.00      0.00
                                0.00      0.00      0.00

     london  stress (kbar)      0.00      0.00      0.00
                                0.00      0.00      0.00
                                0.00      0.00      0.00

     DFT-D3  stress (kbar)      0.00      0.00      0.00
                                0.00      0.00      0.00
                                0.00      0.00      0.00

     XDM     stress (kbar)      0.00      0.00      0.00
                                0.00      0.00      0.00
                                0.00      0.00      0.00

     dft-nl  stress (kbar)      0.00      0.00      0.00
                                0.00      0.00      0.00
                                0.00      0.00      0.00

     TS-vdW  stress (kbar)      0.00      0.00      0.00
                                0.00      0.00      0.00
                                0.00      0.00      0.00



     Writing output data file CsSnI3.save/
 
     init_run     :      1.66s CPU      2.09s WALL (       2 calls)
     electrons    :    114.98s CPU    121.56s WALL (       9 calls)
     update_pot   :      3.95s CPU      4.01s WALL (       7 calls)
     forces       :      2.94s CPU      3.18s WALL (       9 calls)
     stress       :      9.52s CPU     10.00s WALL (       9 calls)

     Called by init_run:
     wfcinit      :      0.25s CPU      0.36s WALL (       2 calls)
     wfcinit:atom :      0.00s CPU      0.00s WALL (       8 calls)
     wfcinit:wfcr :      0.23s CPU      0.33s WALL (       8 calls)
     potinit      :      0.56s CPU      0.63s WALL (       2 calls)
     hinit0       :      0.50s CPU      0.59s WALL (       2 calls)

     Called by electrons:
     c_bands      :     73.97s CPU     76.15s WALL (     100 calls)
     sum_band     :     13.21s CPU     15.66s WALL (     100 calls)
     v_of_rho     :      0.94s CPU      0.99s WALL (     102 calls)
     v_h          :      0.07s CPU      0.08s WALL (     102 calls)
     v_xc         :      1.01s CPU      1.05s WALL (     120 calls)
     newd         :      7.71s CPU      9.16s WALL (     102 calls)
     PAW_pot      :     22.47s CPU     22.97s WALL (     109 calls)
     mix_rho      :      0.27s CPU      0.29s WALL (     100 calls)

     Called by c_bands:
     init_us_2    :      0.63s CPU      0.67s WALL (     908 calls)
     ccgdiagg     :     66.06s CPU     67.97s WALL (     400 calls)
     wfcrot       :      7.67s CPU      7.98s WALL (     344 calls)

     Called by sum_band:
     sum_band:bec :      0.04s CPU      0.04s WALL (     428 calls)
     addusdens    :      8.24s CPU     10.55s WALL (     100 calls)

     Called by *cgdiagg:
     h_psi        :     47.99s CPU     49.32s WALL (   41114 calls)
     s_psi        :     12.67s CPU     12.57s WALL (   81884 calls)
     cdiaghg      :      0.72s CPU      0.80s WALL (     344 calls)
     cdiaghg:chol :      0.06s CPU      0.07s WALL (     344 calls)
     cdiaghg:inve :      0.03s CPU      0.04s WALL (     344 calls)
     cdiaghg:para :      0.04s CPU      0.05s WALL (     688 calls)

     Called by h_psi:
     h_psi:pot    :     47.90s CPU     49.04s WALL (   41114 calls)
     h_psi:calbec :     10.31s CPU     10.22s WALL (   41114 calls)
     vloc_psi     :     30.02s CPU     30.99s WALL (   41114 calls)
     add_vuspsi   :      7.50s CPU      7.61s WALL (   41114 calls)
     hs_1psi      :     48.10s CPU     49.46s WALL (   40770 calls)
     s_1psi       :     13.22s CPU     13.43s WALL (   40770 calls)

     General routines
     calbec       :     17.92s CPU     17.67s WALL (   82492 calls)
     fft          :      0.96s CPU      1.01s WALL (    1361 calls)
     ffts         :      0.06s CPU      0.06s WALL (     100 calls)
     fftw         :     31.43s CPU     31.81s WALL (  116420 calls)
 
     Parallel routines
     fft_scatt_xy :      2.62s CPU      2.45s WALL (  117881 calls)
     fft_scatt_yz :     21.06s CPU     20.32s WALL (  117881 calls)

     PAW routines
     PAW_pot      :     22.47s CPU     22.97s WALL (     109 calls)
     PAW_symme    :      0.64s CPU      0.66s WALL (     209 calls)
 
     PWSCF        :   2m18.15s CPU   2m26.95s WALL

 
   This run was terminated on:  18:59:33  12Jan2021            

=------------------------------------------------------------------------------=
   JOB DONE.
=------------------------------------------------------------------------------=
