
     Program PWSCF v.6.4.1 starts on 12Jan2021 at 19:22:36 

     This program is part of the open-source Quantum ESPRESSO suite
     for quantum simulation of materials; please cite
         "P. Giannozzi et al., J. Phys.:Condens. Matter 21 395502 (2009);
         "P. Giannozzi et al., J. Phys.:Condens. Matter 29 465901 (2017);
          URL http://www.quantum-espresso.org", 
     in publications or presentations arising from this work. More details at
     http://www.quantum-espresso.org/quote

     Parallel version (MPI & OpenMP), running on      48 processor cores
     Number of MPI processes:                48
     Threads/MPI process:                     1

     MPI processes distributed on     1 nodes
     R & G space division:  proc/nbgrp/npool/nimage =      48
     Waiting for input...
     Reading input from standard input

     Current dimensions of program PWSCF are:
     Max number of different atomic species (ntypx) = 10
     Max number of k-points (npk) =  40000
     Max angular momentum in pseudopotentials (lmaxx) =  3
               file Cs.pbe-spn-kjpaw_psl.1.0.0.UPF: wavefunction(s)  5S 6S renormalized
               file I.pbe-n-kjpaw_psl.1.0.0.UPF: wavefunction(s)  5S renormalized

     Subspace diagonalization in iterative solution of the eigenvalue problem:
     one sub-group per band group will be used
     scalapack distributed-memory algorithm (size of sub-group:  4*  4 procs)

     Message from routine setup:
     DEPRECATED: symmetry with ibrav=0, use correct ibrav instead
 
     Parallelization info
     --------------------
     sticks:   dense  smooth     PW     G-vecs:    dense   smooth      PW
     Min          46      46     13                 1644     1644     245
     Max          47      47     15                 1651     1651     249
     Sum        2225    2225    633                78997    78997   11837
 

     Title: 
     CsIrsalt                                                                   


     bravais-lattice index     =            0
     lattice parameter (alat)  =       8.8160  a.u.
     unit-cell volume          =     685.1896 (a.u.)^3
     number of atoms/cell      =            2
     number of atomic types    =            2
     number of electrons       =        16.00
     number of Kohn-Sham states=            8
     kinetic-energy cutoff     =      90.0000  Ry
     charge density cutoff     =     360.0000  Ry
     convergence threshold     =      1.0E-06
     mixing beta               =       0.5000
     number of iterations used =            8  plain     mixing
     Exchange-correlation      = SLA PW PBX PBC ( 1  4  3  4 0 0)
     nstep                     =           50


     celldm(1)=   8.815973  celldm(2)=   0.000000  celldm(3)=   0.000000
     celldm(4)=   0.000000  celldm(5)=   0.000000  celldm(6)=   0.000000

     crystal axes: (cart. coord. in units of alat)
               a(1) = (   1.000000   0.000000   0.000000 )  
               a(2) = (   0.000000   1.000000   0.000000 )  
               a(3) = (   0.000000   0.000000   1.000000 )  

     reciprocal axes: (cart. coord. in units 2 pi/alat)
               b(1) = (  1.000000  0.000000  0.000000 )  
               b(2) = (  0.000000  1.000000  0.000000 )  
               b(3) = (  0.000000  0.000000  1.000000 )  


     PseudoPot. # 1 for Cs read from file:
     ../../../pseudo/Cs.pbe-spn-kjpaw_psl.1.0.0.UPF
     MD5 check sum: b82c75cc2e1f4ff73b6412cffeb9c584
     Pseudo is Projector augmented-wave + core cor, Zval =  9.0
     Generated using "atomic" code by A. Dal Corso v.6.4.1
     Shape of augmentation charge: PSQ
     Using radial grid of 1251 points,  9 beta functions with: 
                l(1) =   0
                l(2) =   0
                l(3) =   0
                l(4) =   1
                l(5) =   1
                l(6) =   2
                l(7) =   2
                l(8) =   3
                l(9) =   3
     Q(r) pseudized with 0 coefficients 


     PseudoPot. # 2 for I  read from file:
     ../../../pseudo/I.pbe-n-kjpaw_psl.1.0.0.UPF
     MD5 check sum: cd3d296c3308a581e1559a0c8a554cb5
     Pseudo is Projector augmented-wave + core cor, Zval =  7.0
     Generated using "atomic" code by A. Dal Corso v.6.3
     Shape of augmentation charge: PSQ
     Using radial grid of 1247 points,  6 beta functions with: 
                l(1) =   0
                l(2) =   0
                l(3) =   1
                l(4) =   1
                l(5) =   2
                l(6) =   2
     Q(r) pseudized with 0 coefficients 


     atomic species   valence    mass     pseudopotential
        Cs             9.00   132.90000     Cs( 1.00)
        I              7.00   126.90000     I ( 1.00)

     48 Sym. Ops., with inversion, found


                                    s                        frac. trans.

      isym =  1     identity                                     

 cryst.   s( 1) = (     1          0          0      )
                  (     0          1          0      )
                  (     0          0          1      )

 cart.    s( 1) = (  1.0000000  0.0000000  0.0000000 )
                  (  0.0000000  1.0000000  0.0000000 )
                  (  0.0000000  0.0000000  1.0000000 )


      isym =  2     180 deg rotation - cart. axis [0,0,1]        

 cryst.   s( 2) = (    -1          0          0      )
                  (     0         -1          0      )
                  (     0          0          1      )

 cart.    s( 2) = ( -1.0000000  0.0000000  0.0000000 )
                  (  0.0000000 -1.0000000  0.0000000 )
                  (  0.0000000  0.0000000  1.0000000 )


      isym =  3     180 deg rotation - cart. axis [0,1,0]        

 cryst.   s( 3) = (    -1          0          0      )
                  (     0          1          0      )
                  (     0          0         -1      )

 cart.    s( 3) = ( -1.0000000  0.0000000  0.0000000 )
                  (  0.0000000  1.0000000  0.0000000 )
                  (  0.0000000  0.0000000 -1.0000000 )


      isym =  4     180 deg rotation - cart. axis [1,0,0]        

 cryst.   s( 4) = (     1          0          0      )
                  (     0         -1          0      )
                  (     0          0         -1      )

 cart.    s( 4) = (  1.0000000  0.0000000  0.0000000 )
                  (  0.0000000 -1.0000000  0.0000000 )
                  (  0.0000000  0.0000000 -1.0000000 )


      isym =  5     180 deg rotation - cart. axis [1,1,0]        

 cryst.   s( 5) = (     0          1          0      )
                  (     1          0          0      )
                  (     0          0         -1      )

 cart.    s( 5) = (  0.0000000  1.0000000  0.0000000 )
                  (  1.0000000  0.0000000  0.0000000 )
                  (  0.0000000  0.0000000 -1.0000000 )


      isym =  6     180 deg rotation - cart. axis [1,-1,0]       

 cryst.   s( 6) = (     0         -1          0      )
                  (    -1          0          0      )
                  (     0          0         -1      )

 cart.    s( 6) = (  0.0000000 -1.0000000  0.0000000 )
                  ( -1.0000000  0.0000000  0.0000000 )
                  (  0.0000000  0.0000000 -1.0000000 )


      isym =  7      90 deg rotation - cart. axis [0,0,-1]       

 cryst.   s( 7) = (     0         -1          0      )
                  (     1          0          0      )
                  (     0          0          1      )

 cart.    s( 7) = (  0.0000000  1.0000000  0.0000000 )
                  ( -1.0000000  0.0000000  0.0000000 )
                  (  0.0000000  0.0000000  1.0000000 )


      isym =  8      90 deg rotation - cart. axis [0,0,1]        

 cryst.   s( 8) = (     0          1          0      )
                  (    -1          0          0      )
                  (     0          0          1      )

 cart.    s( 8) = (  0.0000000 -1.0000000  0.0000000 )
                  (  1.0000000  0.0000000  0.0000000 )
                  (  0.0000000  0.0000000  1.0000000 )


      isym =  9     180 deg rotation - cart. axis [1,0,1]        

 cryst.   s( 9) = (     0          0          1      )
                  (     0         -1          0      )
                  (     1          0          0      )

 cart.    s( 9) = (  0.0000000  0.0000000  1.0000000 )
                  (  0.0000000 -1.0000000  0.0000000 )
                  (  1.0000000  0.0000000  0.0000000 )


      isym = 10     180 deg rotation - cart. axis [-1,0,1]       

 cryst.   s(10) = (     0          0         -1      )
                  (     0         -1          0      )
                  (    -1          0          0      )

 cart.    s(10) = (  0.0000000  0.0000000 -1.0000000 )
                  (  0.0000000 -1.0000000  0.0000000 )
                  ( -1.0000000  0.0000000  0.0000000 )


      isym = 11      90 deg rotation - cart. axis [0,1,0]        

 cryst.   s(11) = (     0          0         -1      )
                  (     0          1          0      )
                  (     1          0          0      )

 cart.    s(11) = (  0.0000000  0.0000000  1.0000000 )
                  (  0.0000000  1.0000000  0.0000000 )
                  ( -1.0000000  0.0000000  0.0000000 )


      isym = 12      90 deg rotation - cart. axis [0,-1,0]       

 cryst.   s(12) = (     0          0          1      )
                  (     0          1          0      )
                  (    -1          0          0      )

 cart.    s(12) = (  0.0000000  0.0000000 -1.0000000 )
                  (  0.0000000  1.0000000  0.0000000 )
                  (  1.0000000  0.0000000  0.0000000 )


      isym = 13     180 deg rotation - cart. axis [0,1,1]        

 cryst.   s(13) = (    -1          0          0      )
                  (     0          0          1      )
                  (     0          1          0      )

 cart.    s(13) = ( -1.0000000  0.0000000  0.0000000 )
                  (  0.0000000  0.0000000  1.0000000 )
                  (  0.0000000  1.0000000  0.0000000 )


      isym = 14     180 deg rotation - cart. axis [0,1,-1]       

 cryst.   s(14) = (    -1          0          0      )
                  (     0          0         -1      )
                  (     0         -1          0      )

 cart.    s(14) = ( -1.0000000  0.0000000  0.0000000 )
                  (  0.0000000  0.0000000 -1.0000000 )
                  (  0.0000000 -1.0000000  0.0000000 )


      isym = 15      90 deg rotation - cart. axis [-1,0,0]       

 cryst.   s(15) = (     1          0          0      )
                  (     0          0         -1      )
                  (     0          1          0      )

 cart.    s(15) = (  1.0000000  0.0000000  0.0000000 )
                  (  0.0000000  0.0000000  1.0000000 )
                  (  0.0000000 -1.0000000  0.0000000 )


      isym = 16      90 deg rotation - cart. axis [1,0,0]        

 cryst.   s(16) = (     1          0          0      )
                  (     0          0          1      )
                  (     0         -1          0      )

 cart.    s(16) = (  1.0000000  0.0000000  0.0000000 )
                  (  0.0000000  0.0000000 -1.0000000 )
                  (  0.0000000  1.0000000  0.0000000 )


      isym = 17     120 deg rotation - cart. axis [-1,-1,-1]     

 cryst.   s(17) = (     0          0          1      )
                  (     1          0          0      )
                  (     0          1          0      )

 cart.    s(17) = (  0.0000000  1.0000000  0.0000000 )
                  (  0.0000000  0.0000000  1.0000000 )
                  (  1.0000000  0.0000000  0.0000000 )


      isym = 18     120 deg rotation - cart. axis [-1,1,1]       

 cryst.   s(18) = (     0          0         -1      )
                  (    -1          0          0      )
                  (     0          1          0      )

 cart.    s(18) = (  0.0000000 -1.0000000  0.0000000 )
                  (  0.0000000  0.0000000  1.0000000 )
                  ( -1.0000000  0.0000000  0.0000000 )


      isym = 19     120 deg rotation - cart. axis [1,1,-1]       

 cryst.   s(19) = (     0          0         -1      )
                  (     1          0          0      )
                  (     0         -1          0      )

 cart.    s(19) = (  0.0000000  1.0000000  0.0000000 )
                  (  0.0000000  0.0000000 -1.0000000 )
                  ( -1.0000000  0.0000000  0.0000000 )


      isym = 20     120 deg rotation - cart. axis [1,-1,1]       

 cryst.   s(20) = (     0          0          1      )
                  (    -1          0          0      )
                  (     0         -1          0      )

 cart.    s(20) = (  0.0000000 -1.0000000  0.0000000 )
                  (  0.0000000  0.0000000 -1.0000000 )
                  (  1.0000000  0.0000000  0.0000000 )


      isym = 21     120 deg rotation - cart. axis [1,1,1]        

 cryst.   s(21) = (     0          1          0      )
                  (     0          0          1      )
                  (     1          0          0      )

 cart.    s(21) = (  0.0000000  0.0000000  1.0000000 )
                  (  1.0000000  0.0000000  0.0000000 )
                  (  0.0000000  1.0000000  0.0000000 )


      isym = 22     120 deg rotation - cart. axis [-1,1,-1]      

 cryst.   s(22) = (     0         -1          0      )
                  (     0          0         -1      )
                  (     1          0          0      )

 cart.    s(22) = (  0.0000000  0.0000000  1.0000000 )
                  ( -1.0000000  0.0000000  0.0000000 )
                  (  0.0000000 -1.0000000  0.0000000 )


      isym = 23     120 deg rotation - cart. axis [1,-1,-1]      

 cryst.   s(23) = (     0         -1          0      )
                  (     0          0          1      )
                  (    -1          0          0      )

 cart.    s(23) = (  0.0000000  0.0000000 -1.0000000 )
                  ( -1.0000000  0.0000000  0.0000000 )
                  (  0.0000000  1.0000000  0.0000000 )


      isym = 24     120 deg rotation - cart. axis [-1,-1,1]      

 cryst.   s(24) = (     0          1          0      )
                  (     0          0         -1      )
                  (    -1          0          0      )

 cart.    s(24) = (  0.0000000  0.0000000 -1.0000000 )
                  (  1.0000000  0.0000000  0.0000000 )
                  (  0.0000000 -1.0000000  0.0000000 )


      isym = 25     inversion                                    

 cryst.   s(25) = (    -1          0          0      )
                  (     0         -1          0      )
                  (     0          0         -1      )

 cart.    s(25) = ( -1.0000000  0.0000000  0.0000000 )
                  (  0.0000000 -1.0000000  0.0000000 )
                  (  0.0000000  0.0000000 -1.0000000 )


      isym = 26     inv. 180 deg rotation - cart. axis [0,0,1]   

 cryst.   s(26) = (     1          0          0      )
                  (     0          1          0      )
                  (     0          0         -1      )

 cart.    s(26) = (  1.0000000  0.0000000  0.0000000 )
                  (  0.0000000  1.0000000  0.0000000 )
                  (  0.0000000  0.0000000 -1.0000000 )


      isym = 27     inv. 180 deg rotation - cart. axis [0,1,0]   

 cryst.   s(27) = (     1          0          0      )
                  (     0         -1          0      )
                  (     0          0          1      )

 cart.    s(27) = (  1.0000000  0.0000000  0.0000000 )
                  (  0.0000000 -1.0000000  0.0000000 )
                  (  0.0000000  0.0000000  1.0000000 )


      isym = 28     inv. 180 deg rotation - cart. axis [1,0,0]   

 cryst.   s(28) = (    -1          0          0      )
                  (     0          1          0      )
                  (     0          0          1      )

 cart.    s(28) = ( -1.0000000  0.0000000  0.0000000 )
                  (  0.0000000  1.0000000  0.0000000 )
                  (  0.0000000  0.0000000  1.0000000 )


      isym = 29     inv. 180 deg rotation - cart. axis [1,1,0]   

 cryst.   s(29) = (     0         -1          0      )
                  (    -1          0          0      )
                  (     0          0          1      )

 cart.    s(29) = (  0.0000000 -1.0000000  0.0000000 )
                  ( -1.0000000  0.0000000  0.0000000 )
                  (  0.0000000  0.0000000  1.0000000 )


      isym = 30     inv. 180 deg rotation - cart. axis [1,-1,0]  

 cryst.   s(30) = (     0          1          0      )
                  (     1          0          0      )
                  (     0          0          1      )

 cart.    s(30) = (  0.0000000  1.0000000  0.0000000 )
                  (  1.0000000  0.0000000  0.0000000 )
                  (  0.0000000  0.0000000  1.0000000 )


      isym = 31     inv.  90 deg rotation - cart. axis [0,0,-1]  

 cryst.   s(31) = (     0          1          0      )
                  (    -1          0          0      )
                  (     0          0         -1      )

 cart.    s(31) = (  0.0000000 -1.0000000  0.0000000 )
                  (  1.0000000  0.0000000  0.0000000 )
                  (  0.0000000  0.0000000 -1.0000000 )


      isym = 32     inv.  90 deg rotation - cart. axis [0,0,1]   

 cryst.   s(32) = (     0         -1          0      )
                  (     1          0          0      )
                  (     0          0         -1      )

 cart.    s(32) = (  0.0000000  1.0000000  0.0000000 )
                  ( -1.0000000  0.0000000  0.0000000 )
                  (  0.0000000  0.0000000 -1.0000000 )


      isym = 33     inv. 180 deg rotation - cart. axis [1,0,1]   

 cryst.   s(33) = (     0          0         -1      )
                  (     0          1          0      )
                  (    -1          0          0      )

 cart.    s(33) = (  0.0000000  0.0000000 -1.0000000 )
                  (  0.0000000  1.0000000  0.0000000 )
                  ( -1.0000000  0.0000000  0.0000000 )


      isym = 34     inv. 180 deg rotation - cart. axis [-1,0,1]  

 cryst.   s(34) = (     0          0          1      )
                  (     0          1          0      )
                  (     1          0          0      )

 cart.    s(34) = (  0.0000000  0.0000000  1.0000000 )
                  (  0.0000000  1.0000000  0.0000000 )
                  (  1.0000000  0.0000000  0.0000000 )


      isym = 35     inv.  90 deg rotation - cart. axis [0,1,0]   

 cryst.   s(35) = (     0          0          1      )
                  (     0         -1          0      )
                  (    -1          0          0      )

 cart.    s(35) = (  0.0000000  0.0000000 -1.0000000 )
                  (  0.0000000 -1.0000000  0.0000000 )
                  (  1.0000000  0.0000000  0.0000000 )


      isym = 36     inv.  90 deg rotation - cart. axis [0,-1,0]  

 cryst.   s(36) = (     0          0         -1      )
                  (     0         -1          0      )
                  (     1          0          0      )

 cart.    s(36) = (  0.0000000  0.0000000  1.0000000 )
                  (  0.0000000 -1.0000000  0.0000000 )
                  ( -1.0000000  0.0000000  0.0000000 )


      isym = 37     inv. 180 deg rotation - cart. axis [0,1,1]   

 cryst.   s(37) = (     1          0          0      )
                  (     0          0         -1      )
                  (     0         -1          0      )

 cart.    s(37) = (  1.0000000  0.0000000  0.0000000 )
                  (  0.0000000  0.0000000 -1.0000000 )
                  (  0.0000000 -1.0000000  0.0000000 )


      isym = 38     inv. 180 deg rotation - cart. axis [0,1,-1]  

 cryst.   s(38) = (     1          0          0      )
                  (     0          0          1      )
                  (     0          1          0      )

 cart.    s(38) = (  1.0000000  0.0000000  0.0000000 )
                  (  0.0000000  0.0000000  1.0000000 )
                  (  0.0000000  1.0000000  0.0000000 )


      isym = 39     inv.  90 deg rotation - cart. axis [-1,0,0]  

 cryst.   s(39) = (    -1          0          0      )
                  (     0          0          1      )
                  (     0         -1          0      )

 cart.    s(39) = ( -1.0000000  0.0000000  0.0000000 )
                  (  0.0000000  0.0000000 -1.0000000 )
                  (  0.0000000  1.0000000  0.0000000 )


      isym = 40     inv.  90 deg rotation - cart. axis [1,0,0]   

 cryst.   s(40) = (    -1          0          0      )
                  (     0          0         -1      )
                  (     0          1          0      )

 cart.    s(40) = ( -1.0000000  0.0000000  0.0000000 )
                  (  0.0000000  0.0000000  1.0000000 )
                  (  0.0000000 -1.0000000  0.0000000 )


      isym = 41     inv. 120 deg rotation - cart. axis [-1,-1,-1]

 cryst.   s(41) = (     0          0         -1      )
                  (    -1          0          0      )
                  (     0         -1          0      )

 cart.    s(41) = (  0.0000000 -1.0000000  0.0000000 )
                  (  0.0000000  0.0000000 -1.0000000 )
                  ( -1.0000000  0.0000000  0.0000000 )


      isym = 42     inv. 120 deg rotation - cart. axis [-1,1,1]  

 cryst.   s(42) = (     0          0          1      )
                  (     1          0          0      )
                  (     0         -1          0      )

 cart.    s(42) = (  0.0000000  1.0000000  0.0000000 )
                  (  0.0000000  0.0000000 -1.0000000 )
                  (  1.0000000  0.0000000  0.0000000 )


      isym = 43     inv. 120 deg rotation - cart. axis [1,1,-1]  

 cryst.   s(43) = (     0          0          1      )
                  (    -1          0          0      )
                  (     0          1          0      )

 cart.    s(43) = (  0.0000000 -1.0000000  0.0000000 )
                  (  0.0000000  0.0000000  1.0000000 )
                  (  1.0000000  0.0000000  0.0000000 )


      isym = 44     inv. 120 deg rotation - cart. axis [1,-1,1]  

 cryst.   s(44) = (     0          0         -1      )
                  (     1          0          0      )
                  (     0          1          0      )

 cart.    s(44) = (  0.0000000  1.0000000  0.0000000 )
                  (  0.0000000  0.0000000  1.0000000 )
                  ( -1.0000000  0.0000000  0.0000000 )


      isym = 45     inv. 120 deg rotation - cart. axis [1,1,1]   

 cryst.   s(45) = (     0         -1          0      )
                  (     0          0         -1      )
                  (    -1          0          0      )

 cart.    s(45) = (  0.0000000  0.0000000 -1.0000000 )
                  ( -1.0000000  0.0000000  0.0000000 )
                  (  0.0000000 -1.0000000  0.0000000 )


      isym = 46     inv. 120 deg rotation - cart. axis [-1,1,-1] 

 cryst.   s(46) = (     0          1          0      )
                  (     0          0          1      )
                  (    -1          0          0      )

 cart.    s(46) = (  0.0000000  0.0000000 -1.0000000 )
                  (  1.0000000  0.0000000  0.0000000 )
                  (  0.0000000  1.0000000  0.0000000 )


      isym = 47     inv. 120 deg rotation - cart. axis [1,-1,-1] 

 cryst.   s(47) = (     0          1          0      )
                  (     0          0         -1      )
                  (     1          0          0      )

 cart.    s(47) = (  0.0000000  0.0000000  1.0000000 )
                  (  1.0000000  0.0000000  0.0000000 )
                  (  0.0000000 -1.0000000  0.0000000 )


      isym = 48     inv. 120 deg rotation - cart. axis [-1,-1,1] 

 cryst.   s(48) = (     0         -1          0      )
                  (     0          0          1      )
                  (     1          0          0      )

 cart.    s(48) = (  0.0000000  0.0000000  1.0000000 )
                  ( -1.0000000  0.0000000  0.0000000 )
                  (  0.0000000  1.0000000  0.0000000 )


   Cartesian axes

     site n.     atom                  positions (alat units)
         1           Cs  tau(   1) = (   0.0000000   0.0000000   0.0000000  )
         2           I   tau(   2) = (   0.5000000   0.5000000   0.5000000  )

   Crystallographic axes

     site n.     atom                  positions (cryst. coord.)
         1           Cs  tau(   1) = (  0.0000000  0.0000000  0.0000000  )
         2           I   tau(   2) = (  0.5000000  0.5000000  0.5000000  )

     number of k points=     4
                       cart. coord. in units 2pi/alat
        k(    1) = (   0.0000000   0.0000000   0.0000000), wk =   0.2500000
        k(    2) = (   0.0000000   0.0000000  -0.5000000), wk =   0.7500000
        k(    3) = (   0.0000000  -0.5000000  -0.5000000), wk =   0.7500000
        k(    4) = (  -0.5000000  -0.5000000  -0.5000000), wk =   0.2500000

                       cryst. coord.
        k(    1) = (   0.0000000   0.0000000   0.0000000), wk =   0.2500000
        k(    2) = (   0.0000000   0.0000000  -0.5000000), wk =   0.7500000
        k(    3) = (   0.0000000  -0.5000000  -0.5000000), wk =   0.7500000
        k(    4) = (  -0.5000000  -0.5000000  -0.5000000), wk =   0.2500000

     Dense  grid:    78997 G-vectors     FFT dimensions: (  54,  54,  54)

     Dynamical RAM for                 wfc:       0.03 MB

     Dynamical RAM for     wfc (w. buffer):       0.13 MB

     Dynamical RAM for           str. fact:       0.05 MB

     Dynamical RAM for           local pot:       0.00 MB

     Dynamical RAM for          nlocal pot:       0.16 MB

     Dynamical RAM for                qrad:      25.63 MB

     Dynamical RAM for          rho,v,vnew:       0.21 MB

     Dynamical RAM for               rhoin:       0.07 MB

     Dynamical RAM for            rho*nmix:       0.40 MB

     Dynamical RAM for           G-vectors:       0.11 MB

     Dynamical RAM for          h,s,v(r/c):       0.00 MB

     Dynamical RAM for          <psi|beta>:       0.01 MB

     Dynamical RAM for      wfcinit/wfcrot:       0.06 MB

     Dynamical RAM for           addusdens:      14.79 MB

     Dynamical RAM for          addusforce:      14.91 MB

     Dynamical RAM for         addusstress:      15.45 MB

     Estimated static dynamical RAM per process >      27.05 MB

     Estimated max dynamical RAM per process >      42.49 MB

     Estimated total dynamical RAM >       1.99 GB

     Initial potential from superposition of free atoms

     starting charge   15.96031, renormalised to   16.00000
     Starting wfcs are    9 randomized atomic wfcs
     Checking if some PAW data can be deallocated... 
       PAW data deallocated on   24 nodes for type:  1
       PAW data deallocated on   24 nodes for type:  2

     total cpu time spent up to now is        5.4 secs

     Self-consistent Calculation

     iteration #  1     ecut=    90.00 Ry     beta= 0.50
     CG style diagonalization
     ethr =  1.00E-02,  avg # of iterations =  2.0

     Threshold (ethr) on eigenvalues was too large:
     Diagonalizing with lowered threshold

     CG style diagonalization
     ethr =  4.33E-04,  avg # of iterations =  3.1

     total cpu time spent up to now is        5.9 secs

     total energy              =    -794.86486607 Ry
     Harris-Foulkes estimate   =    -794.89335660 Ry
     estimated scf accuracy    <       0.05248177 Ry

     iteration #  2     ecut=    90.00 Ry     beta= 0.50
     CG style diagonalization
     ethr =  3.28E-04,  avg # of iterations =  3.9

     total cpu time spent up to now is        6.3 secs

     total energy              =    -794.87920269 Ry
     Harris-Foulkes estimate   =    -794.87924111 Ry
     estimated scf accuracy    <       0.00285665 Ry

     iteration #  3     ecut=    90.00 Ry     beta= 0.50
     CG style diagonalization
     ethr =  1.79E-05,  avg # of iterations =  5.9

     total cpu time spent up to now is        6.6 secs

     total energy              =    -794.88536602 Ry
     Harris-Foulkes estimate   =    -794.88670110 Ry
     estimated scf accuracy    <       0.00222016 Ry

     iteration #  4     ecut=    90.00 Ry     beta= 0.50
     CG style diagonalization
     ethr =  1.39E-05,  avg # of iterations =  3.8

     total cpu time spent up to now is        7.0 secs

     total energy              =    -794.88605850 Ry
     Harris-Foulkes estimate   =    -794.88621949 Ry
     estimated scf accuracy    <       0.00044121 Ry

     iteration #  5     ecut=    90.00 Ry     beta= 0.50
     CG style diagonalization
     ethr =  2.76E-06,  avg # of iterations =  4.4

     total cpu time spent up to now is        7.3 secs

     total energy              =    -794.88617519 Ry
     Harris-Foulkes estimate   =    -794.88631509 Ry
     estimated scf accuracy    <       0.00019361 Ry

     iteration #  6     ecut=    90.00 Ry     beta= 0.50
     CG style diagonalization
     ethr =  1.21E-06,  avg # of iterations =  4.0

     total cpu time spent up to now is        7.6 secs

     total energy              =    -794.88624703 Ry
     Harris-Foulkes estimate   =    -794.88623377 Ry
     estimated scf accuracy    <       0.00000246 Ry

     iteration #  7     ecut=    90.00 Ry     beta= 0.50
     CG style diagonalization
     ethr =  1.54E-08,  avg # of iterations =  9.1

     total cpu time spent up to now is        8.0 secs

     total energy              =    -794.88626424 Ry
     Harris-Foulkes estimate   =    -794.88634078 Ry
     estimated scf accuracy    <       0.00013911 Ry

     iteration #  8     ecut=    90.00 Ry     beta= 0.50
     CG style diagonalization
     ethr =  1.54E-08,  avg # of iterations =  5.8

     total cpu time spent up to now is        8.4 secs

     total energy              =    -794.88627714 Ry
     Harris-Foulkes estimate   =    -794.88627752 Ry
     estimated scf accuracy    <       0.00001455 Ry

     iteration #  9     ecut=    90.00 Ry     beta= 0.50
     CG style diagonalization
     ethr =  1.54E-08,  avg # of iterations =  4.7

     total cpu time spent up to now is        8.7 secs

     total energy              =    -794.88627792 Ry
     Harris-Foulkes estimate   =    -794.88628069 Ry
     estimated scf accuracy    <       0.00000826 Ry

     iteration # 10     ecut=    90.00 Ry     beta= 0.50
     CG style diagonalization
     ethr =  1.54E-08,  avg # of iterations =  3.6

     total cpu time spent up to now is        9.0 secs

     total energy              =    -794.88627718 Ry
     Harris-Foulkes estimate   =    -794.88627830 Ry
     estimated scf accuracy    <       0.00000337 Ry

     iteration # 11     ecut=    90.00 Ry     beta= 0.50
     CG style diagonalization
     ethr =  1.54E-08,  avg # of iterations =  3.9

     total cpu time spent up to now is        9.3 secs

     End of self-consistent calculation

          k = 0.0000 0.0000 0.0000 (  9843 PWs)   bands (ev):

   -17.8930  -7.8177  -4.5976  -4.5976  -4.5976   2.6166   2.6166   2.6166

     occupation numbers 
     1.0000   1.0000   1.0000   1.0000   1.0000   1.0000   1.0000   1.0000

          k = 0.0000 0.0000-0.5000 (  9890 PWs)   bands (ev):

   -17.8748  -7.8240  -4.7180  -4.5498  -4.5498   1.2905   2.5042   2.5042

     occupation numbers 
     1.0000   1.0000   1.0000   1.0000   1.0000   1.0000   1.0000   1.0000

          k = 0.0000-0.5000-0.5000 (  9844 PWs)   bands (ev):

   -17.8582  -7.6717  -4.8891  -4.8891  -4.5185   1.8947   1.8947   2.7144

     occupation numbers 
     1.0000   1.0000   1.0000   1.0000   1.0000   1.0000   1.0000   1.0000

          k =-0.5000-0.5000-0.5000 (  9952 PWs)   bands (ev):

   -17.8423  -7.5855  -4.8070  -4.8070  -4.8070   1.5491   1.5491   1.5491

     occupation numbers 
     1.0000   1.0000   1.0000   1.0000   1.0000   1.0000   1.0000   1.0000

     highest occupied level (ev):     2.7144

!    total energy              =    -794.88627692 Ry
     Harris-Foulkes estimate   =    -794.88627773 Ry
     estimated scf accuracy    <       0.00000095 Ry

     total all-electron energy =    -29807.052281 Ry

     The total energy is the sum of the following terms:

     one-electron contribution =      -3.97541610 Ry
     hartree contribution      =       8.76203254 Ry
     xc contribution           =     -36.98356348 Ry
     ewald contribution        =     -53.30014088 Ry
     one-center paw contrib.   =    -709.38918900 Ry
      -> PAW hartree energy AE =      25.64479334 Ry
      -> PAW hartree energy PS =     -25.53520073 Ry
      -> PAW xc energy AE      =    -383.53194625 Ry
      -> PAW xc energy PS      =      20.51645792 Ry
      -> total E_H with PAW    =       8.87162515 Ry
      -> total E_XC with PAW   =    -399.99905181 Ry

     convergence has been achieved in  11 iterations

     Forces acting on atoms (cartesian axes, Ry/au):

     atom    1 type  1   force =     0.00000000    0.00000000    0.00000000
     atom    2 type  2   force =     0.00000000    0.00000000    0.00000000
     The non-local contrib.  to forces
     atom    1 type  1   force =     0.00000000    0.00000000    0.00000000
     atom    2 type  2   force =     0.00000000    0.00000000    0.00000000
     The ionic contribution  to forces
     atom    1 type  1   force =    -0.00000000   -0.00000000   -0.00000000
     atom    2 type  2   force =     0.00000000    0.00000000    0.00000000
     The local contribution  to forces
     atom    1 type  1   force =     0.00000000    0.00000000    0.00000000
     atom    2 type  2   force =     0.00000000    0.00000000    0.00000000
     The core correction contribution to forces
     atom    1 type  1   force =     0.00000000    0.00000000   -0.00000000
     atom    2 type  2   force =     0.00000000    0.00000000    0.00000000
     The Hubbard contrib.    to forces
     atom    1 type  1   force =     0.00000000    0.00000000    0.00000000
     atom    2 type  2   force =     0.00000000    0.00000000    0.00000000
     The SCF correction term to forces
     atom    1 type  1   force =     0.00000000    0.00000000    0.00000000
     atom    2 type  2   force =     0.00000000   -0.00000000   -0.00000000

     Total force =     0.000000     Total SCF correction =     0.000000


     Computing stress (Cartesian axis) and pressure

          total   stress  (Ry/bohr**3)                   (kbar)     P=    6.70
   0.00004552   0.00000000   0.00000000          6.70      0.00      0.00
   0.00000000   0.00004552   0.00000000          0.00      6.70      0.00
   0.00000000   0.00000000   0.00004552          0.00      0.00      6.70

     kinetic stress (kbar)   3021.48      0.00      0.00
                                0.00   3021.48      0.00
                                0.00      0.00   3021.48

     local   stress (kbar)  -1091.08      0.00     -0.00
                                0.00  -1091.08     -0.00
                               -0.00     -0.00  -1091.08

     nonloc. stress (kbar)   2494.64      0.00      0.00
                                0.00   2494.64      0.00
                                0.00      0.00   2494.64

     hartree stress (kbar)    627.05      0.00      0.00
                                0.00    627.05      0.00
                                0.00      0.00    627.05

     exc-cor stress (kbar)   4362.39      0.00     -0.00
                                0.00   4362.39      0.00
                               -0.00      0.00   4362.39

     corecor stress (kbar)  -5593.40      0.00     -0.00
                                0.00  -5593.40     -0.00
                               -0.00     -0.00  -5593.40

     ewald   stress (kbar)  -3814.38      0.00      0.00
                                0.00  -3814.38      0.00
                                0.00      0.00  -3814.38

     hubbard stress (kbar)      0.00      0.00      0.00
                                0.00      0.00      0.00
                                0.00      0.00      0.00

     london  stress (kbar)      0.00      0.00      0.00
                                0.00      0.00      0.00
                                0.00      0.00      0.00

     DFT-D3  stress (kbar)      0.00      0.00      0.00
                                0.00      0.00      0.00
                                0.00      0.00      0.00

     XDM     stress (kbar)      0.00      0.00      0.00
                                0.00      0.00      0.00
                                0.00      0.00      0.00

     dft-nl  stress (kbar)      0.00      0.00      0.00
                                0.00      0.00      0.00
                                0.00      0.00      0.00

     TS-vdW  stress (kbar)      0.00      0.00      0.00
                                0.00      0.00      0.00
                                0.00      0.00      0.00



     BFGS Geometry Optimization

     number of scf cycles    =   1
     number of bfgs steps    =   0

     enthalpy new            =    -794.8862769154 Ry

     new trust radius        =       0.0059575581 bohr
     new conv_thr            =       0.0000010000 Ry

     new unit-cell volume =    687.53144 a.u.^3 (   101.88165 Ang^3 )
     density =      4.23440 g/cm^3

CELL_PARAMETERS (angstrom)
   4.670520897   0.000000000   0.000000000
   0.000000000   4.670520897   0.000000000
   0.000000000   0.000000000   4.670520897

ATOMIC_POSITIONS (alat)
Cs       0.000000000   0.000000000   0.000000000
I        0.500568988   0.500568988   0.500568988



     Writing output data file CsSnI3.save/
     NEW-OLD atomic charge density approx. for the potential
     extrapolated charge   16.05436, renormalised to   16.00000

     total cpu time spent up to now is       10.6 secs

     Self-consistent Calculation

     iteration #  1     ecut=    90.00 Ry     beta= 0.50
     CG style diagonalization
     ethr =  1.00E-06,  avg # of iterations =  2.5

     total cpu time spent up to now is       10.9 secs

     total energy              =    -794.88629370 Ry
     Harris-Foulkes estimate   =    -794.88914794 Ry
     estimated scf accuracy    <       0.00004395 Ry

     iteration #  2     ecut=    90.00 Ry     beta= 0.50
     CG style diagonalization
     ethr =  2.75E-07,  avg # of iterations =  4.3

     total cpu time spent up to now is       11.2 secs

     total energy              =    -794.88635878 Ry
     Harris-Foulkes estimate   =    -794.88636310 Ry
     estimated scf accuracy    <       0.00000861 Ry

     iteration #  3     ecut=    90.00 Ry     beta= 0.50
     CG style diagonalization
     ethr =  5.38E-08,  avg # of iterations =  5.5

     total cpu time spent up to now is       11.5 secs

     total energy              =    -794.88639189 Ry
     Harris-Foulkes estimate   =    -794.88639494 Ry
     estimated scf accuracy    <       0.00002189 Ry

     iteration #  4     ecut=    90.00 Ry     beta= 0.50
     CG style diagonalization
     ethr =  5.38E-08,  avg # of iterations =  3.3

     total cpu time spent up to now is       11.8 secs

     total energy              =    -794.88638824 Ry
     Harris-Foulkes estimate   =    -794.88639431 Ry
     estimated scf accuracy    <       0.00001874 Ry

     iteration #  5     ecut=    90.00 Ry     beta= 0.50
     CG style diagonalization
     ethr =  5.38E-08,  avg # of iterations =  3.3

     total cpu time spent up to now is       12.2 secs

     total energy              =    -794.88638421 Ry
     Harris-Foulkes estimate   =    -794.88638918 Ry
     estimated scf accuracy    <       0.00000789 Ry

     iteration #  6     ecut=    90.00 Ry     beta= 0.50
     CG style diagonalization
     ethr =  4.93E-08,  avg # of iterations =  4.5

     total cpu time spent up to now is       12.5 secs

     total energy              =    -794.88638912 Ry
     Harris-Foulkes estimate   =    -794.88639083 Ry
     estimated scf accuracy    <       0.00000716 Ry

     iteration #  7     ecut=    90.00 Ry     beta= 0.50
     CG style diagonalization
     ethr =  4.47E-08,  avg # of iterations =  4.1

     total cpu time spent up to now is       12.8 secs

     total energy              =    -794.88639047 Ry
     Harris-Foulkes estimate   =    -794.88639236 Ry
     estimated scf accuracy    <       0.00000839 Ry

     iteration #  8     ecut=    90.00 Ry     beta= 0.50
     CG style diagonalization
     ethr =  4.47E-08,  avg # of iterations =  3.0

     total cpu time spent up to now is       13.1 secs

     total energy              =    -794.88638704 Ry
     Harris-Foulkes estimate   =    -794.88639060 Ry
     estimated scf accuracy    <       0.00000541 Ry

     iteration #  9     ecut=    90.00 Ry     beta= 0.50
     CG style diagonalization
     ethr =  3.38E-08,  avg # of iterations =  3.5

     total cpu time spent up to now is       13.4 secs

     End of self-consistent calculation

          k = 0.0000 0.0000 0.0000 (  9843 PWs)   bands (ev):

   -17.9240  -7.8439  -4.6288  -4.6288  -4.6288   2.5866   2.5866   2.5866

     occupation numbers 
     1.0000   1.0000   1.0000   1.0000   1.0000   1.0000   1.0000   1.0000

          k = 0.0000 0.0000-0.4994 (  9890 PWs)   bands (ev):

   -17.9061  -7.8495  -4.7490  -4.5817  -4.5817   1.2693   2.4762   2.4762

     occupation numbers 
     1.0000   1.0000   1.0000   1.0000   1.0000   1.0000   1.0000   1.0000

          k = 0.0000-0.4994-0.4994 (  9844 PWs)   bands (ev):

   -17.8898  -7.6994  -4.9170  -4.9170  -4.5507   1.8682   1.8682   2.6846

     occupation numbers 
     1.0000   1.0000   1.0000   1.0000   1.0000   1.0000   1.0000   1.0000

          k =-0.4994-0.4994-0.4994 (  9952 PWs)   bands (ev):

   -17.8742  -7.6142  -4.8361  -4.8361  -4.8361   1.5275   1.5275   1.5275

     occupation numbers 
     1.0000   1.0000   1.0000   1.0000   1.0000   1.0000   1.0000   1.0000

     highest occupied level (ev):     2.6846

!    total energy              =    -794.88638791 Ry
     Harris-Foulkes estimate   =    -794.88638794 Ry
     estimated scf accuracy    <       0.00000007 Ry

     total all-electron energy =    -29807.052392 Ry

     The total energy is the sum of the following terms:

     one-electron contribution =      -4.06545487 Ry
     hartree contribution      =       8.78984380 Ry
     xc contribution           =     -36.98223784 Ry
     ewald contribution        =     -53.23955557 Ry
     one-center paw contrib.   =    -709.38898343 Ry
      -> PAW hartree energy AE =      25.65813955 Ry
      -> PAW hartree energy PS =     -25.54871002 Ry
      -> PAW xc energy AE      =    -383.53287450 Ry
      -> PAW xc energy PS      =      20.51783457 Ry
      -> total E_H with PAW    =       8.89927333 Ry
      -> total E_XC with PAW   =    -399.99727777 Ry

     convergence has been achieved in   9 iterations

     Forces acting on atoms (cartesian axes, Ry/au):

     atom    1 type  1   force =     0.00000000    0.00000000    0.00000000
     atom    2 type  2   force =     0.00000000    0.00000000    0.00000000
     The non-local contrib.  to forces
     atom    1 type  1   force =     0.00000000    0.00000000    0.00000000
     atom    2 type  2   force =     0.00000000    0.00000000    0.00000000
     The ionic contribution  to forces
     atom    1 type  1   force =    -0.00000000   -0.00000000   -0.00000000
     atom    2 type  2   force =     0.00000000    0.00000000    0.00000000
     The local contribution  to forces
     atom    1 type  1   force =     0.00000000    0.00000000    0.00000000
     atom    2 type  2   force =     0.00000000    0.00000000    0.00000000
     The core correction contribution to forces
     atom    1 type  1   force =     0.00000000    0.00000000    0.00000000
     atom    2 type  2   force =     0.00000000    0.00000000    0.00000000
     The Hubbard contrib.    to forces
     atom    1 type  1   force =     0.00000000    0.00000000    0.00000000
     atom    2 type  2   force =     0.00000000    0.00000000    0.00000000
     The SCF correction term to forces
     atom    1 type  1   force =     0.00000000    0.00000000    0.00000000
     atom    2 type  2   force =     0.00000000    0.00000000   -0.00000000

     Total force =     0.000000     Total SCF correction =     0.000000


     Computing stress (Cartesian axis) and pressure

          total   stress  (Ry/bohr**3)                   (kbar)     P=    6.08
   0.00004134   0.00000000   0.00000000          6.08      0.00      0.00
   0.00000000   0.00004134   0.00000000          0.00      6.08      0.00
   0.00000000   0.00000000   0.00004134          0.00      0.00      6.08

     kinetic stress (kbar)   3010.21      0.00      0.00
                                0.00   3010.21      0.00
                                0.00      0.00   3010.21

     local   stress (kbar)  -1093.47      0.00     -0.00
                                0.00  -1093.47     -0.00
                               -0.00     -0.00  -1093.47

     nonloc. stress (kbar)   2486.17      0.00      0.00
                                0.00   2486.17      0.00
                                0.00      0.00   2486.17

     hartree stress (kbar)    626.90     -0.00      0.00
                               -0.00    626.90      0.00
                                0.00      0.00    626.90

     exc-cor stress (kbar)   4347.60      0.00     -0.00
                                0.00   4347.60     -0.00
                               -0.00     -0.00   4347.60

     corecor stress (kbar)  -5574.26     -0.00     -0.00
                               -0.00  -5574.26      0.00
                               -0.00      0.00  -5574.26

     ewald   stress (kbar)  -3797.07     -0.00      0.00
                               -0.00  -3797.07      0.00
                                0.00      0.00  -3797.07

     hubbard stress (kbar)      0.00      0.00      0.00
                                0.00      0.00      0.00
                                0.00      0.00      0.00

     london  stress (kbar)      0.00      0.00      0.00
                                0.00      0.00      0.00
                                0.00      0.00      0.00

     DFT-D3  stress (kbar)      0.00      0.00      0.00
                                0.00      0.00      0.00
                                0.00      0.00      0.00

     XDM     stress (kbar)      0.00      0.00      0.00
                                0.00      0.00      0.00
                                0.00      0.00      0.00

     dft-nl  stress (kbar)      0.00      0.00      0.00
                                0.00      0.00      0.00
                                0.00      0.00      0.00

     TS-vdW  stress (kbar)      0.00      0.00      0.00
                                0.00      0.00      0.00
                                0.00      0.00      0.00



     number of scf cycles    =   2
     number of bfgs steps    =   1

     enthalpy old            =    -794.8862769154 Ry
     enthalpy new            =    -794.8863879133 Ry

     CASE: enthalpy_new < enthalpy_old


     WARNING: bfgs curvature condition failed, Theta= 0.879
     new trust radius        =       0.0065570416 bohr
     new conv_thr            =       0.0000000100 Ry

     new unit-cell volume =    690.11364 a.u.^3 (   102.26429 Ang^3 )
     density =      4.21856 g/cm^3

CELL_PARAMETERS (angstrom)
   4.676360684   0.000000000   0.000000000
   0.000000000   4.676360684   0.000000000
   0.000000000   0.000000000   4.676360684

ATOMIC_POSITIONS (alat)
Cs       0.000000000   0.000000000   0.000000000
I        0.501194874   0.501194874   0.501194874



     Writing output data file CsSnI3.save/
     NEW-OLD atomic charge density approx. for the potential
     extrapolated charge   16.05972, renormalised to   16.00000

     total cpu time spent up to now is       14.5 secs

     Self-consistent Calculation

     iteration #  1     ecut=    90.00 Ry     beta= 0.50
     CG style diagonalization
     ethr =  1.00E-06,  avg # of iterations =  2.4

     total cpu time spent up to now is       14.8 secs

     total energy              =    -794.88639019 Ry
     Harris-Foulkes estimate   =    -794.88929093 Ry
     estimated scf accuracy    <       0.00004914 Ry

     iteration #  2     ecut=    90.00 Ry     beta= 0.50
     CG style diagonalization
     ethr =  3.07E-07,  avg # of iterations =  4.6

     total cpu time spent up to now is       15.1 secs

     total energy              =    -794.88645701 Ry
     Harris-Foulkes estimate   =    -794.88646068 Ry
     estimated scf accuracy    <       0.00000615 Ry

     iteration #  3     ecut=    90.00 Ry     beta= 0.50
     CG style diagonalization
     ethr =  3.84E-08,  avg # of iterations =  6.2

     total cpu time spent up to now is       15.5 secs

     total energy              =    -794.88650567 Ry
     Harris-Foulkes estimate   =    -794.88651401 Ry
     estimated scf accuracy    <       0.00002951 Ry

     iteration #  4     ecut=    90.00 Ry     beta= 0.50
     CG style diagonalization
     ethr =  3.84E-08,  avg # of iterations =  3.8

     total cpu time spent up to now is       15.8 secs

     total energy              =    -794.88649638 Ry
     Harris-Foulkes estimate   =    -794.88650698 Ry
     estimated scf accuracy    <       0.00001570 Ry

     iteration #  5     ecut=    90.00 Ry     beta= 0.50
     CG style diagonalization
     ethr =  3.84E-08,  avg # of iterations =  4.3

     total cpu time spent up to now is       16.1 secs

     total energy              =    -794.88650097 Ry
     Harris-Foulkes estimate   =    -794.88650317 Ry
     estimated scf accuracy    <       0.00000388 Ry

     iteration #  6     ecut=    90.00 Ry     beta= 0.50
     CG style diagonalization
     ethr =  2.43E-08,  avg # of iterations =  4.6

     total cpu time spent up to now is       16.4 secs

     total energy              =    -794.88650285 Ry
     Harris-Foulkes estimate   =    -794.88650428 Ry
     estimated scf accuracy    <       0.00000220 Ry

     iteration #  7     ecut=    90.00 Ry     beta= 0.50
     CG style diagonalization
     ethr =  1.38E-08,  avg # of iterations =  3.4

     total cpu time spent up to now is       16.8 secs

     total energy              =    -794.88652086 Ry
     Harris-Foulkes estimate   =    -794.88650322 Ry
     estimated scf accuracy    <       0.00000019 Ry

     iteration #  8     ecut=    90.00 Ry     beta= 0.50
     CG style diagonalization
     ethr =  1.22E-09,  avg # of iterations =  6.8

     total cpu time spent up to now is       17.1 secs

     total energy              =    -794.88649146 Ry
     Harris-Foulkes estimate   =    -794.88653729 Ry
     estimated scf accuracy    <       0.00007858 Ry

     iteration #  9     ecut=    90.00 Ry     beta= 0.50
     CG style diagonalization
     ethr =  1.22E-09,  avg # of iterations =  8.6

     total cpu time spent up to now is       17.5 secs

     total energy              =    -794.88650657 Ry
     Harris-Foulkes estimate   =    -794.88650308 Ry
     estimated scf accuracy    <       0.00000064 Ry

     iteration # 10     ecut=    90.00 Ry     beta= 0.50
     CG style diagonalization
     ethr =  1.22E-09,  avg # of iterations =  5.5

     total cpu time spent up to now is       17.8 secs

     total energy              =    -794.88650437 Ry
     Harris-Foulkes estimate   =    -794.88650773 Ry
     estimated scf accuracy    <       0.00000976 Ry

     iteration # 11     ecut=    90.00 Ry     beta= 0.50
     CG style diagonalization
     ethr =  1.22E-09,  avg # of iterations =  4.9

     total cpu time spent up to now is       18.2 secs

     total energy              =    -794.88650252 Ry
     Harris-Foulkes estimate   =    -794.88650468 Ry
     estimated scf accuracy    <       0.00000352 Ry

     iteration # 12     ecut=    90.00 Ry     beta= 0.50
     CG style diagonalization
     ethr =  1.22E-09,  avg # of iterations =  5.7

     total cpu time spent up to now is       18.5 secs

     total energy              =    -794.88650360 Ry
     Harris-Foulkes estimate   =    -794.88650359 Ry
     estimated scf accuracy    <       0.00000010 Ry

     iteration # 13     ecut=    90.00 Ry     beta= 0.50
     CG style diagonalization
     ethr =  6.33E-10,  avg # of iterations =  4.8

     total cpu time spent up to now is       18.8 secs

     total energy              =    -794.88650368 Ry
     Harris-Foulkes estimate   =    -794.88650372 Ry
     estimated scf accuracy    <       0.00000020 Ry

     iteration # 14     ecut=    90.00 Ry     beta= 0.50
     CG style diagonalization
     ethr =  6.33E-10,  avg # of iterations =  3.2

     total cpu time spent up to now is       19.1 secs

     total energy              =    -794.88650367 Ry
     Harris-Foulkes estimate   =    -794.88650369 Ry
     estimated scf accuracy    <       0.00000015 Ry

     iteration # 15     ecut=    90.00 Ry     beta= 0.50
     CG style diagonalization
     ethr =  6.33E-10,  avg # of iterations =  3.0

     total cpu time spent up to now is       19.5 secs

     total energy              =    -794.88650362 Ry
     Harris-Foulkes estimate   =    -794.88650367 Ry
     estimated scf accuracy    <       0.00000011 Ry

     iteration # 16     ecut=    90.00 Ry     beta= 0.50
     CG style diagonalization
     ethr =  6.33E-10,  avg # of iterations =  3.2

     total cpu time spent up to now is       19.8 secs

     total energy              =    -794.88650361 Ry
     Harris-Foulkes estimate   =    -794.88650363 Ry
     estimated scf accuracy    <       0.00000003 Ry

     iteration # 17     ecut=    90.00 Ry     beta= 0.50
     CG style diagonalization
     ethr =  2.00E-10,  avg # of iterations =  4.7

     total cpu time spent up to now is       20.1 secs

     End of self-consistent calculation

          k = 0.0000 0.0000 0.0000 (  9843 PWs)   bands (ev):

   -17.9562  -7.8659  -4.6618  -4.6618  -4.6618   2.5589   2.5589   2.5589

     occupation numbers 
     1.0000   1.0000   1.0000   1.0000   1.0000   1.0000   1.0000   1.0000

          k = 0.0000 0.0000-0.4988 (  9890 PWs)   bands (ev):

   -17.9386  -7.8709  -4.7816  -4.6154  -4.6154   1.2499   2.4505   2.4505

     occupation numbers 
     1.0000   1.0000   1.0000   1.0000   1.0000   1.0000   1.0000   1.0000

          k = 0.0000-0.4988-0.4988 (  9844 PWs)   bands (ev):

   -17.9225  -7.7228  -4.9465  -4.9465  -4.5848   1.8437   1.8437   2.6571

     occupation numbers 
     1.0000   1.0000   1.0000   1.0000   1.0000   1.0000   1.0000   1.0000

          k =-0.4988-0.4988-0.4988 (  9952 PWs)   bands (ev):

   -17.9071  -7.6386  -4.8670  -4.8670  -4.8670   1.5081   1.5081   1.5081

     occupation numbers 
     1.0000   1.0000   1.0000   1.0000   1.0000   1.0000   1.0000   1.0000

     highest occupied level (ev):     2.6571

!    total energy              =    -794.88650363 Ry
     Harris-Foulkes estimate   =    -794.88650364 Ry
     estimated scf accuracy    <          6.1E-09 Ry

     total all-electron energy =    -29807.052508 Ry

     The total energy is the sum of the following terms:

     one-electron contribution =      -4.16589975 Ry
     hartree contribution      =       8.82319153 Ry
     xc contribution           =     -36.98150740 Ry
     ewald contribution        =     -53.17307061 Ry
     one-center paw contrib.   =    -709.38921740 Ry
      -> PAW hartree energy AE =      25.63922824 Ry
      -> PAW hartree energy PS =     -25.52969316 Ry
      -> PAW xc energy AE      =    -383.53077992 Ry
      -> PAW xc energy PS      =      20.51555285 Ry
      -> total E_H with PAW    =       8.93272661 Ry
      -> total E_XC with PAW   =    -399.99673447 Ry

     convergence has been achieved in  17 iterations

     Forces acting on atoms (cartesian axes, Ry/au):

     atom    1 type  1   force =     0.00000000    0.00000000    0.00000000
     atom    2 type  2   force =     0.00000000    0.00000000    0.00000000
     The non-local contrib.  to forces
     atom    1 type  1   force =     0.00000000    0.00000000    0.00000000
     atom    2 type  2   force =     0.00000000    0.00000000    0.00000000
     The ionic contribution  to forces
     atom    1 type  1   force =    -0.00000000   -0.00000000   -0.00000000
     atom    2 type  2   force =     0.00000000    0.00000000    0.00000000
     The local contribution  to forces
     atom    1 type  1   force =     0.00000000    0.00000000    0.00000000
     atom    2 type  2   force =     0.00000000    0.00000000    0.00000000
     The core correction contribution to forces
     atom    1 type  1   force =     0.00000000    0.00000000    0.00000000
     atom    2 type  2   force =    -0.00000000   -0.00000000   -0.00000000
     The Hubbard contrib.    to forces
     atom    1 type  1   force =     0.00000000    0.00000000    0.00000000
     atom    2 type  2   force =     0.00000000    0.00000000    0.00000000
     The SCF correction term to forces
     atom    1 type  1   force =     0.00000000    0.00000000   -0.00000000
     atom    2 type  2   force =    -0.00000000    0.00000000    0.00000000

     Total force =     0.000000     Total SCF correction =     0.000000


     Computing stress (Cartesian axis) and pressure

          total   stress  (Ry/bohr**3)                   (kbar)     P=    6.34
   0.00004308   0.00000000   0.00000000          6.34      0.00      0.00
   0.00000000   0.00004308   0.00000000          0.00      6.34      0.00
   0.00000000   0.00000000   0.00004308          0.00      0.00      6.34

     kinetic stress (kbar)   2999.19      0.00      0.00
                                0.00   2999.19      0.00
                                0.00      0.00   2999.19

     local   stress (kbar)  -1096.52      0.00     -0.00
                                0.00  -1096.52     -0.00
                               -0.00     -0.00  -1096.52

     nonloc. stress (kbar)   2477.00      0.00      0.00
                                0.00   2477.00      0.00
                                0.00      0.00   2477.00

     hartree stress (kbar)    626.92     -0.00     -0.00
                               -0.00    626.92     -0.00
                               -0.00     -0.00    626.92

     exc-cor stress (kbar)   4331.38      0.00      0.00
                                0.00   4331.38      0.00
                                0.00      0.00   4331.38

     corecor stress (kbar)  -5553.49     -0.00     -0.00
                               -0.00  -5553.49     -0.00
                               -0.00     -0.00  -5553.49

     ewald   stress (kbar)  -3778.13     -0.00     -0.00
                               -0.00  -3778.13     -0.00
                               -0.00     -0.00  -3778.13

     hubbard stress (kbar)      0.00      0.00      0.00
                                0.00      0.00      0.00
                                0.00      0.00      0.00

     london  stress (kbar)      0.00      0.00      0.00
                                0.00      0.00      0.00
                                0.00      0.00      0.00

     DFT-D3  stress (kbar)      0.00      0.00      0.00
                                0.00      0.00      0.00
                                0.00      0.00      0.00

     XDM     stress (kbar)      0.00      0.00      0.00
                                0.00      0.00      0.00
                                0.00      0.00      0.00

     dft-nl  stress (kbar)      0.00      0.00      0.00
                                0.00      0.00      0.00
                                0.00      0.00      0.00

     TS-vdW  stress (kbar)      0.00      0.00      0.00
                                0.00      0.00      0.00
                                0.00      0.00      0.00



     number of scf cycles    =   3
     number of bfgs steps    =   2

     enthalpy old            =    -794.8863879133 Ry
     enthalpy new            =    -794.8865036329 Ry

     CASE: enthalpy_new < enthalpy_old


     WARNING: bfgs curvature condition failed, Theta= 0.545
     uphill step: resetting bfgs history

     new trust radius        =       0.0056582860 bohr
     new conv_thr            =       0.0000000100 Ry

     new unit-cell volume =    692.34569 a.u.^3 (   102.59504 Ang^3 )
     density =      4.20496 g/cm^3

CELL_PARAMETERS (angstrom)
   4.681396879   0.000000000   0.000000000
   0.000000000   4.681396879   0.000000000
   0.000000000   0.000000000   4.681396879

ATOMIC_POSITIONS (alat)
Cs       0.000000000   0.000000000   0.000000000
I        0.501734635   0.501734635   0.501734635



     Writing output data file CsSnI3.save/
     NEW-OLD atomic charge density approx. for the potential
     extrapolated charge   16.05145, renormalised to   16.00000

     total cpu time spent up to now is       21.1 secs

     Self-consistent Calculation

     iteration #  1     ecut=    90.00 Ry     beta= 0.50
     CG style diagonalization
     ethr =  1.00E-06,  avg # of iterations =  2.2

     total cpu time spent up to now is       21.4 secs

     total energy              =    -794.88651379 Ry
     Harris-Foulkes estimate   =    -794.88882320 Ry
     estimated scf accuracy    <       0.00004158 Ry

     iteration #  2     ecut=    90.00 Ry     beta= 0.50
     CG style diagonalization
     ethr =  2.60E-07,  avg # of iterations =  4.2

     total cpu time spent up to now is       21.7 secs

     total energy              =    -794.88658159 Ry
     Harris-Foulkes estimate   =    -794.88658893 Ry
     estimated scf accuracy    <       0.00001736 Ry

     iteration #  3     ecut=    90.00 Ry     beta= 0.50
     CG style diagonalization
     ethr =  1.08E-07,  avg # of iterations =  4.5

     total cpu time spent up to now is       22.1 secs

     total energy              =    -794.88659580 Ry
     Harris-Foulkes estimate   =    -794.88659844 Ry
     estimated scf accuracy    <       0.00001128 Ry

     iteration #  4     ecut=    90.00 Ry     beta= 0.50
     CG style diagonalization
     ethr =  7.05E-08,  avg # of iterations =  3.5

     total cpu time spent up to now is       22.4 secs

     total energy              =    -794.88659536 Ry
     Harris-Foulkes estimate   =    -794.88659772 Ry
     estimated scf accuracy    <       0.00000777 Ry

     iteration #  5     ecut=    90.00 Ry     beta= 0.50
     CG style diagonalization
     ethr =  4.86E-08,  avg # of iterations =  3.3

     total cpu time spent up to now is       22.7 secs

     total energy              =    -794.88659468 Ry
     Harris-Foulkes estimate   =    -794.88659622 Ry
     estimated scf accuracy    <       0.00000334 Ry

     iteration #  6     ecut=    90.00 Ry     beta= 0.50
     CG style diagonalization
     ethr =  2.09E-08,  avg # of iterations =  4.0

     total cpu time spent up to now is       23.0 secs

     total energy              =    -794.88659568 Ry
     Harris-Foulkes estimate   =    -794.88659579 Ry
     estimated scf accuracy    <       0.00000028 Ry

     iteration #  7     ecut=    90.00 Ry     beta= 0.50
     CG style diagonalization
     ethr =  1.72E-09,  avg # of iterations =  6.4

     total cpu time spent up to now is       23.4 secs

     total energy              =    -794.88659646 Ry
     Harris-Foulkes estimate   =    -794.88659643 Ry
     estimated scf accuracy    <       0.00000008 Ry

     iteration #  8     ecut=    90.00 Ry     beta= 0.50
     CG style diagonalization
     ethr =  5.06E-10,  avg # of iterations =  4.1

     total cpu time spent up to now is       23.7 secs

     total energy              =    -794.88659651 Ry
     Harris-Foulkes estimate   =    -794.88659653 Ry
     estimated scf accuracy    <       0.00000021 Ry

     iteration #  9     ecut=    90.00 Ry     beta= 0.50
     CG style diagonalization
     ethr =  5.06E-10,  avg # of iterations =  3.7

     total cpu time spent up to now is       24.0 secs

     total energy              =    -794.88659654 Ry
     Harris-Foulkes estimate   =    -794.88659653 Ry
     estimated scf accuracy    <       0.00000006 Ry

     iteration # 10     ecut=    90.00 Ry     beta= 0.50
     CG style diagonalization
     ethr =  3.93E-10,  avg # of iterations =  4.2

     total cpu time spent up to now is       24.3 secs

     total energy              =    -794.88659652 Ry
     Harris-Foulkes estimate   =    -794.88659658 Ry
     estimated scf accuracy    <       0.00000013 Ry

     iteration # 11     ecut=    90.00 Ry     beta= 0.50
     CG style diagonalization
     ethr =  3.93E-10,  avg # of iterations =  3.9

     total cpu time spent up to now is       24.7 secs

     total energy              =    -794.88659651 Ry
     Harris-Foulkes estimate   =    -794.88659654 Ry
     estimated scf accuracy    <       0.00000005 Ry

     iteration # 12     ecut=    90.00 Ry     beta= 0.50
     CG style diagonalization
     ethr =  3.40E-10,  avg # of iterations =  3.3

     total cpu time spent up to now is       25.0 secs

     total energy              =    -794.88659651 Ry
     Harris-Foulkes estimate   =    -794.88659651 Ry
     estimated scf accuracy    <       0.00000002 Ry

     iteration # 13     ecut=    90.00 Ry     beta= 0.50
     CG style diagonalization
     ethr =  9.84E-11,  avg # of iterations =  4.2

     total cpu time spent up to now is       25.3 secs

     End of self-consistent calculation

          k = 0.0000 0.0000 0.0000 (  9843 PWs)   bands (ev):

   -17.9852  -7.8858  -4.6912  -4.6912  -4.6912   2.5343   2.5343   2.5343

     occupation numbers 
     1.0000   1.0000   1.0000   1.0000   1.0000   1.0000   1.0000   1.0000

          k = 0.0000 0.0000-0.4983 (  9890 PWs)   bands (ev):

   -17.9679  -7.8903  -4.8106  -4.6455  -4.6455   1.2327   2.4276   2.4276

     occupation numbers 
     1.0000   1.0000   1.0000   1.0000   1.0000   1.0000   1.0000   1.0000

          k = 0.0000-0.4983-0.4983 (  9844 PWs)   bands (ev):

   -17.9520  -7.7439  -4.9729  -4.9729  -4.6152   1.8220   1.8220   2.6328

     occupation numbers 
     1.0000   1.0000   1.0000   1.0000   1.0000   1.0000   1.0000   1.0000

          k =-0.4983-0.4983-0.4983 (  9952 PWs)   bands (ev):

   -17.9369  -7.6607  -4.8945  -4.8945  -4.8945   1.4908   1.4908   1.4908

     occupation numbers 
     1.0000   1.0000   1.0000   1.0000   1.0000   1.0000   1.0000   1.0000

     highest occupied level (ev):     2.6328

!    total energy              =    -794.88659651 Ry
     Harris-Foulkes estimate   =    -794.88659651 Ry
     estimated scf accuracy    <          4.5E-09 Ry

     total all-electron energy =    -29807.052601 Ry

     The total energy is the sum of the following terms:

     one-electron contribution =      -4.25161078 Ry
     hartree contribution      =       8.85004754 Ry
     xc contribution           =     -36.98011128 Ry
     ewald contribution        =     -53.11586760 Ry
     one-center paw contrib.   =    -709.38905439 Ry
      -> PAW hartree energy AE =      25.63830510 Ry
      -> PAW hartree energy PS =     -25.52878696 Ry
      -> PAW xc energy AE      =    -383.53054742 Ry
      -> PAW xc energy PS      =      20.51538796 Ry
      -> total E_H with PAW    =       8.95956568 Ry
      -> total E_XC with PAW   =    -399.99527074 Ry

     convergence has been achieved in  13 iterations

     Forces acting on atoms (cartesian axes, Ry/au):

     atom    1 type  1   force =     0.00000000    0.00000000    0.00000000
     atom    2 type  2   force =     0.00000000    0.00000000    0.00000000
     The non-local contrib.  to forces
     atom    1 type  1   force =     0.00000000    0.00000000    0.00000000
     atom    2 type  2   force =     0.00000000    0.00000000    0.00000000
     The ionic contribution  to forces
     atom    1 type  1   force =    -0.00000000   -0.00000000   -0.00000000
     atom    2 type  2   force =     0.00000000    0.00000000    0.00000000
     The local contribution  to forces
     atom    1 type  1   force =     0.00000000    0.00000000    0.00000000
     atom    2 type  2   force =     0.00000000    0.00000000    0.00000000
     The core correction contribution to forces
     atom    1 type  1   force =     0.00000000    0.00000000    0.00000000
     atom    2 type  2   force =    -0.00000000   -0.00000000   -0.00000000
     The Hubbard contrib.    to forces
     atom    1 type  1   force =     0.00000000    0.00000000    0.00000000
     atom    2 type  2   force =     0.00000000    0.00000000    0.00000000
     The SCF correction term to forces
     atom    1 type  1   force =     0.00000000    0.00000000    0.00000000
     atom    2 type  2   force =     0.00000000    0.00000000    0.00000000

     Total force =     0.000000     Total SCF correction =     0.000000


     Computing stress (Cartesian axis) and pressure

          total   stress  (Ry/bohr**3)                   (kbar)     P=    5.90
   0.00004008   0.00000000   0.00000000          5.90      0.00      0.00
   0.00000000   0.00004008   0.00000000          0.00      5.90      0.00
   0.00000000   0.00000000   0.00004008          0.00      0.00      5.90

     kinetic stress (kbar)   2989.07      0.00      0.00
                                0.00   2989.07      0.00
                                0.00      0.00   2989.07

     local   stress (kbar)  -1098.87      0.00     -0.00
                                0.00  -1098.87      0.00
                               -0.00      0.00  -1098.87

     nonloc. stress (kbar)   2468.88      0.00      0.00
                                0.00   2468.88      0.00
                                0.00      0.00   2468.88

     hartree stress (kbar)    626.80      0.00     -0.00
                                0.00    626.80     -0.00
                               -0.00     -0.00    626.80

     exc-cor stress (kbar)   4317.47      0.00      0.00
                                0.00   4317.47      0.00
                                0.00      0.00   4317.47

     corecor stress (kbar)  -5535.55      0.00      0.00
                                0.00  -5535.55     -0.00
                                0.00     -0.00  -5535.55

     ewald   stress (kbar)  -3761.90      0.00     -0.00
                                0.00  -3761.90     -0.00
                               -0.00     -0.00  -3761.90

     hubbard stress (kbar)      0.00      0.00      0.00
                                0.00      0.00      0.00
                                0.00      0.00      0.00

     london  stress (kbar)      0.00      0.00      0.00
                                0.00      0.00      0.00
                                0.00      0.00      0.00

     DFT-D3  stress (kbar)      0.00      0.00      0.00
                                0.00      0.00      0.00
                                0.00      0.00      0.00

     XDM     stress (kbar)      0.00      0.00      0.00
                                0.00      0.00      0.00
                                0.00      0.00      0.00

     dft-nl  stress (kbar)      0.00      0.00      0.00
                                0.00      0.00      0.00
                                0.00      0.00      0.00

     TS-vdW  stress (kbar)      0.00      0.00      0.00
                                0.00      0.00      0.00
                                0.00      0.00      0.00



     number of scf cycles    =   4
     number of bfgs steps    =   3

     enthalpy old            =    -794.8865036329 Ry
     enthalpy new            =    -794.8865965080 Ry

     CASE: enthalpy_new < enthalpy_old


     WARNING: bfgs curvature condition failed, Theta= 0.858
     new trust radius        =       0.0062274652 bohr
     new conv_thr            =       0.0000000100 Ry

     new unit-cell volume =    694.80650 a.u.^3 (   102.95970 Ang^3 )
     density =      4.19007 g/cm^3

CELL_PARAMETERS (angstrom)
   4.686936695   0.000000000   0.000000000
   0.000000000   4.686936695   0.000000000
   0.000000000   0.000000000   4.686936695

ATOMIC_POSITIONS (alat)
Cs       0.000000000   0.000000000   0.000000000
I        0.502328372   0.502328372   0.502328372



     Writing output data file CsSnI3.save/
     NEW-OLD atomic charge density approx. for the potential
     extrapolated charge   16.05653, renormalised to   16.00000

     total cpu time spent up to now is       26.3 secs

     Self-consistent Calculation

     iteration #  1     ecut=    90.00 Ry     beta= 0.50
     CG style diagonalization
     ethr =  1.00E-06,  avg # of iterations =  2.4

     total cpu time spent up to now is       26.6 secs

     total energy              =    -794.88659281 Ry
     Harris-Foulkes estimate   =    -794.88891949 Ry
     estimated scf accuracy    <       0.00004924 Ry

     iteration #  2     ecut=    90.00 Ry     beta= 0.50
     CG style diagonalization
     ethr =  3.08E-07,  avg # of iterations =  4.2

     total cpu time spent up to now is       26.9 secs

     total energy              =    -794.88667534 Ry
     Harris-Foulkes estimate   =    -794.88668449 Ry
     estimated scf accuracy    <       0.00002270 Ry

     iteration #  3     ecut=    90.00 Ry     beta= 0.50
     CG style diagonalization
     ethr =  1.42E-07,  avg # of iterations =  4.6

     total cpu time spent up to now is       27.2 secs

     total energy              =    -794.88669117 Ry
     Harris-Foulkes estimate   =    -794.88669434 Ry
     estimated scf accuracy    <       0.00001395 Ry

     iteration #  4     ecut=    90.00 Ry     beta= 0.50
     CG style diagonalization
     ethr =  8.72E-08,  avg # of iterations =  3.6

     total cpu time spent up to now is       27.6 secs

     total energy              =    -794.88669068 Ry
     Harris-Foulkes estimate   =    -794.88669371 Ry
     estimated scf accuracy    <       0.00000925 Ry

     iteration #  5     ecut=    90.00 Ry     beta= 0.50
     CG style diagonalization
     ethr =  5.78E-08,  avg # of iterations =  3.4

     total cpu time spent up to now is       27.9 secs

     total energy              =    -794.88668974 Ry
     Harris-Foulkes estimate   =    -794.88669180 Ry
     estimated scf accuracy    <       0.00000381 Ry

     iteration #  6     ecut=    90.00 Ry     beta= 0.50
     CG style diagonalization
     ethr =  2.38E-08,  avg # of iterations =  4.4

     total cpu time spent up to now is       28.2 secs

     total energy              =    -794.88669126 Ry
     Harris-Foulkes estimate   =    -794.88669128 Ry
     estimated scf accuracy    <       0.00000025 Ry

     iteration #  7     ecut=    90.00 Ry     beta= 0.50
     CG style diagonalization
     ethr =  1.57E-09,  avg # of iterations =  5.7

     total cpu time spent up to now is       28.5 secs

     total energy              =    -794.88669338 Ry
     Harris-Foulkes estimate   =    -794.88669218 Ry
     estimated scf accuracy    <       0.00000035 Ry

     iteration #  8     ecut=    90.00 Ry     beta= 0.50
     CG style diagonalization
     ethr =  1.57E-09,  avg # of iterations =  4.5

     total cpu time spent up to now is       28.9 secs

     total energy              =    -794.88669119 Ry
     Harris-Foulkes estimate   =    -794.88669414 Ry
     estimated scf accuracy    <       0.00000452 Ry

     iteration #  9     ecut=    90.00 Ry     beta= 0.50
     CG style diagonalization
     ethr =  1.57E-09,  avg # of iterations =  5.7

     total cpu time spent up to now is       29.2 secs

     total energy              =    -794.88669222 Ry
     Harris-Foulkes estimate   =    -794.88669257 Ry
     estimated scf accuracy    <       0.00000078 Ry

     iteration # 10     ecut=    90.00 Ry     beta= 0.50
     CG style diagonalization
     ethr =  1.57E-09,  avg # of iterations =  4.3

     total cpu time spent up to now is       29.5 secs

     total energy              =    -794.88669227 Ry
     Harris-Foulkes estimate   =    -794.88669245 Ry
     estimated scf accuracy    <       0.00000031 Ry

     iteration # 11     ecut=    90.00 Ry     beta= 0.50
     CG style diagonalization
     ethr =  1.57E-09,  avg # of iterations =  3.4

     total cpu time spent up to now is       29.8 secs

     total energy              =    -794.88669227 Ry
     Harris-Foulkes estimate   =    -794.88669230 Ry
     estimated scf accuracy    <       0.00000010 Ry

     iteration # 12     ecut=    90.00 Ry     beta= 0.50
     CG style diagonalization
     ethr =  6.23E-10,  avg # of iterations =  4.1

     total cpu time spent up to now is       30.2 secs

     total energy              =    -794.88669230 Ry
     Harris-Foulkes estimate   =    -794.88669229 Ry
     estimated scf accuracy    <       0.00000003 Ry

     iteration # 13     ecut=    90.00 Ry     beta= 0.50
     CG style diagonalization
     ethr =  2.06E-10,  avg # of iterations =  4.3

     total cpu time spent up to now is       30.5 secs

     total energy              =    -794.88669230 Ry
     Harris-Foulkes estimate   =    -794.88669232 Ry
     estimated scf accuracy    <       0.00000005 Ry

     iteration # 14     ecut=    90.00 Ry     beta= 0.50
     CG style diagonalization
     ethr =  2.06E-10,  avg # of iterations =  3.7

     total cpu time spent up to now is       30.8 secs

     total energy              =    -794.88669229 Ry
     Harris-Foulkes estimate   =    -794.88669230 Ry
     estimated scf accuracy    <       0.00000002 Ry

     iteration # 15     ecut=    90.00 Ry     beta= 0.50
     CG style diagonalization
     ethr =  1.43E-10,  avg # of iterations =  3.5

     total cpu time spent up to now is       31.1 secs

     End of self-consistent calculation

          k = 0.0000 0.0000 0.0000 (  9843 PWs)   bands (ev):

   -18.0175  -7.9079  -4.7238  -4.7238  -4.7238   2.5073   2.5073   2.5073

     occupation numbers 
     1.0000   1.0000   1.0000   1.0000   1.0000   1.0000   1.0000   1.0000

          k = 0.0000 0.0000-0.4977 (  9890 PWs)   bands (ev):

   -18.0005  -7.9119  -4.8428  -4.6788  -4.6788   1.2137   2.4024   2.4024

     occupation numbers 
     1.0000   1.0000   1.0000   1.0000   1.0000   1.0000   1.0000   1.0000

          k = 0.0000-0.4977-0.4977 (  9844 PWs)   bands (ev):

   -17.9849  -7.7673  -5.0022  -5.0022  -4.6489   1.7981   1.7981   2.6060

     occupation numbers 
     1.0000   1.0000   1.0000   1.0000   1.0000   1.0000   1.0000   1.0000

          k =-0.4977-0.4977-0.4977 (  9952 PWs)   bands (ev):

   -17.9700  -7.6850  -4.9251  -4.9251  -4.9251   1.4717   1.4717   1.4717

     occupation numbers 
     1.0000   1.0000   1.0000   1.0000   1.0000   1.0000   1.0000   1.0000

     highest occupied level (ev):     2.6060

!    total energy              =    -794.88669229 Ry
     Harris-Foulkes estimate   =    -794.88669229 Ry
     estimated scf accuracy    <          3.2E-09 Ry

     total all-electron energy =    -29807.052697 Ry

     The total energy is the sum of the following terms:

     one-electron contribution =      -4.34580949 Ry
     hartree contribution      =       8.87985315 Ry
     xc contribution           =     -36.97871605 Ry
     ewald contribution        =     -53.05308627 Ry
     one-center paw contrib.   =    -709.38893364 Ry
      -> PAW hartree energy AE =      25.63686010 Ry
      -> PAW hartree energy PS =     -25.52735242 Ry
      -> PAW xc energy AE      =    -383.53027311 Ry
      -> PAW xc energy PS      =      20.51516292 Ry
      -> total E_H with PAW    =       8.98936083 Ry
      -> total E_XC with PAW   =    -399.99382624 Ry

     convergence has been achieved in  15 iterations

     Forces acting on atoms (cartesian axes, Ry/au):

     atom    1 type  1   force =     0.00000000    0.00000000    0.00000000
     atom    2 type  2   force =     0.00000000    0.00000000    0.00000000
     The non-local contrib.  to forces
     atom    1 type  1   force =     0.00000000    0.00000000    0.00000000
     atom    2 type  2   force =     0.00000000    0.00000000    0.00000000
     The ionic contribution  to forces
     atom    1 type  1   force =     0.00000000    0.00000000    0.00000000
     atom    2 type  2   force =    -0.00000000   -0.00000000   -0.00000000
     The local contribution  to forces
     atom    1 type  1   force =     0.00000000    0.00000000    0.00000000
[...]

 cart.    s(44) = (  0.0000000  1.0000000  0.0000000 )
                  (  0.0000000  0.0000000  1.0000000 )
                  ( -1.0000000  0.0000000  0.0000000 )


      isym = 45     inv. 120 deg rotation - cart. axis [1,1,1]   

 cryst.   s(45) = (     0         -1          0      )
                  (     0          0         -1      )
                  (    -1          0          0      )

 cart.    s(45) = (  0.0000000  0.0000000 -1.0000000 )
                  ( -1.0000000  0.0000000  0.0000000 )
                  (  0.0000000 -1.0000000  0.0000000 )


      isym = 46     inv. 120 deg rotation - cart. axis [-1,1,-1] 

 cryst.   s(46) = (     0          1          0      )
                  (     0          0          1      )
                  (    -1          0          0      )

 cart.    s(46) = (  0.0000000  0.0000000 -1.0000000 )
                  (  1.0000000  0.0000000  0.0000000 )
                  (  0.0000000  1.0000000  0.0000000 )


      isym = 47     inv. 120 deg rotation - cart. axis [1,-1,-1] 

 cryst.   s(47) = (     0          1          0      )
                  (     0          0         -1      )
                  (     1          0          0      )

 cart.    s(47) = (  0.0000000  0.0000000  1.0000000 )
                  (  1.0000000  0.0000000  0.0000000 )
                  (  0.0000000 -1.0000000  0.0000000 )


      isym = 48     inv. 120 deg rotation - cart. axis [-1,-1,1] 

 cryst.   s(48) = (     0         -1          0      )
                  (     0          0          1      )
                  (     1          0          0      )

 cart.    s(48) = (  0.0000000  0.0000000  1.0000000 )
                  ( -1.0000000  0.0000000  0.0000000 )
                  (  0.0000000  1.0000000  0.0000000 )


   Cartesian axes

     site n.     atom                  positions (alat units)
         1           Cs  tau(   1) = (   0.0000000   0.0000000   0.0000000  )
         2           I   tau(   2) = (   0.5114252   0.5114252   0.5114252  )

   Crystallographic axes

     site n.     atom                  positions (cryst. coord.)
         1           Cs  tau(   1) = (  0.0000000  0.0000000  0.0000000  )
         2           I   tau(   2) = (  0.5000000  0.5000000  0.5000000  )

     number of k points=     4
                       cart. coord. in units 2pi/alat
        k(    1) = (   0.0000000   0.0000000   0.0000000), wk =   0.2500000
        k(    2) = (   0.0000000   0.0000000  -0.4888300), wk =   0.7500000
        k(    3) = (   0.0000000  -0.4888300  -0.4888300), wk =   0.7500000
        k(    4) = (  -0.4888300  -0.4888300  -0.4888300), wk =   0.2500000

                       cryst. coord.
        k(    1) = (   0.0000000   0.0000000   0.0000000), wk =   0.2500000
        k(    2) = (   0.0000000   0.0000000  -0.5000000), wk =   0.7500000
        k(    3) = (   0.0000000  -0.5000000  -0.5000000), wk =   0.7500000
        k(    4) = (  -0.5000000  -0.5000000  -0.5000000), wk =   0.2500000

     Dense  grid:    84727 G-vectors     FFT dimensions: (  60,  60,  60)

     Dynamical RAM for                 wfc:       0.03 MB

     Dynamical RAM for     wfc (w. buffer):       0.13 MB

     Dynamical RAM for           str. fact:       0.05 MB

     Dynamical RAM for           local pot:       0.03 MB

     Dynamical RAM for          nlocal pot:       0.17 MB

     Dynamical RAM for                qrad:      25.63 MB

     Dynamical RAM for          rho,v,vnew:       0.25 MB

     Dynamical RAM for               rhoin:       0.08 MB

     Dynamical RAM for            rho*nmix:       0.43 MB

     Dynamical RAM for           G-vectors:       0.11 MB

     Dynamical RAM for          h,s,v(r/c):       0.00 MB

     Dynamical RAM for          <psi|beta>:       0.01 MB

     Dynamical RAM for      wfcinit/wfcrot:       0.06 MB

     Dynamical RAM for           addusdens:      15.88 MB

     Dynamical RAM for          addusforce:      16.00 MB

     Dynamical RAM for         addusstress:      16.58 MB

     Estimated static dynamical RAM per process >      27.24 MB

     Estimated max dynamical RAM per process >      43.82 MB

     Estimated total dynamical RAM >       2.05 GB

     Initial potential from superposition of free atoms

     starting charge   15.96031, renormalised to   16.00000
     Starting wfcs are    9 randomized atomic wfcs
     Checking if some PAW data can be deallocated... 
       PAW data deallocated on   24 nodes for type:  1
       PAW data deallocated on   24 nodes for type:  2

     total cpu time spent up to now is       76.4 secs

     Self-consistent Calculation

     iteration #  1     ecut=    90.00 Ry     beta= 0.50
     CG style diagonalization
     ethr =  1.00E-06,  avg # of iterations =  9.8

     total cpu time spent up to now is       76.8 secs

     total energy              =    -794.87821675 Ry
     Harris-Foulkes estimate   =    -794.90161897 Ry
     estimated scf accuracy    <       0.04462923 Ry

     iteration #  2     ecut=    90.00 Ry     beta= 0.50
     CG style diagonalization
     ethr =  2.79E-04,  avg # of iterations =  3.4

     total cpu time spent up to now is       77.1 secs

     total energy              =    -794.88460149 Ry
     Harris-Foulkes estimate   =    -794.88453107 Ry
     estimated scf accuracy    <       0.00283781 Ry

     iteration #  3     ecut=    90.00 Ry     beta= 0.50
     CG style diagonalization
     ethr =  1.77E-05,  avg # of iterations =  4.8

     total cpu time spent up to now is       77.4 secs

     total energy              =    -794.88685680 Ry
     Harris-Foulkes estimate   =    -794.88680927 Ry
     estimated scf accuracy    <       0.00055681 Ry

     iteration #  4     ecut=    90.00 Ry     beta= 0.50
     CG style diagonalization
     ethr =  3.48E-06,  avg # of iterations =  4.8

     total cpu time spent up to now is       77.8 secs

     total energy              =    -794.88729273 Ry
     Harris-Foulkes estimate   =    -794.88730237 Ry
     estimated scf accuracy    <       0.00006034 Ry

     iteration #  5     ecut=    90.00 Ry     beta= 0.50
     CG style diagonalization
     ethr =  3.77E-07,  avg # of iterations =  5.2

     total cpu time spent up to now is       78.1 secs

     total energy              =    -794.88737987 Ry
     Harris-Foulkes estimate   =    -794.88738334 Ry
     estimated scf accuracy    <       0.00001258 Ry

     iteration #  6     ecut=    90.00 Ry     beta= 0.50
     CG style diagonalization
     ethr =  7.86E-08,  avg # of iterations =  5.3

     total cpu time spent up to now is       78.5 secs

     total energy              =    -794.88739157 Ry
     Harris-Foulkes estimate   =    -794.88739406 Ry
     estimated scf accuracy    <       0.00000428 Ry

     iteration #  7     ecut=    90.00 Ry     beta= 0.50
     CG style diagonalization
     ethr =  2.68E-08,  avg # of iterations =  5.1

     total cpu time spent up to now is       78.8 secs

     total energy              =    -794.88739420 Ry
     Harris-Foulkes estimate   =    -794.88739621 Ry
     estimated scf accuracy    <       0.00000354 Ry

     iteration #  8     ecut=    90.00 Ry     beta= 0.50
     CG style diagonalization
     ethr =  2.21E-08,  avg # of iterations =  3.8

     total cpu time spent up to now is       79.1 secs

     total energy              =    -794.88739476 Ry
     Harris-Foulkes estimate   =    -794.88739527 Ry
     estimated scf accuracy    <       0.00000097 Ry

     iteration #  9     ecut=    90.00 Ry     beta= 0.50
     CG style diagonalization
     ethr =  6.06E-09,  avg # of iterations =  4.3

     total cpu time spent up to now is       79.4 secs

     total energy              =    -794.88739523 Ry
     Harris-Foulkes estimate   =    -794.88739520 Ry
     estimated scf accuracy    <       0.00000014 Ry

     iteration # 10     ecut=    90.00 Ry     beta= 0.50
     CG style diagonalization
     ethr =  8.66E-10,  avg # of iterations =  5.5

     total cpu time spent up to now is       79.8 secs

     total energy              =    -794.88739528 Ry
     Harris-Foulkes estimate   =    -794.88739538 Ry
     estimated scf accuracy    <       0.00000016 Ry

     iteration # 11     ecut=    90.00 Ry     beta= 0.50
     CG style diagonalization
     ethr =  8.66E-10,  avg # of iterations =  4.2

     total cpu time spent up to now is       80.1 secs

     total energy              =    -794.88739535 Ry
     Harris-Foulkes estimate   =    -794.88739538 Ry
     estimated scf accuracy    <       0.00000013 Ry

     iteration # 12     ecut=    90.00 Ry     beta= 0.50
     CG style diagonalization
     ethr =  8.37E-10,  avg # of iterations =  3.6

     total cpu time spent up to now is       80.4 secs

     total energy              =    -794.88739539 Ry
     Harris-Foulkes estimate   =    -794.88739538 Ry
     estimated scf accuracy    <       0.00000007 Ry

     iteration # 13     ecut=    90.00 Ry     beta= 0.50
     CG style diagonalization
     ethr =  4.53E-10,  avg # of iterations =  3.1

     total cpu time spent up to now is       80.8 secs

     total energy              =    -794.88739542 Ry
     Harris-Foulkes estimate   =    -794.88739540 Ry
     estimated scf accuracy    <       0.00000009 Ry

     iteration # 14     ecut=    90.00 Ry     beta= 0.50
     CG style diagonalization
     ethr =  4.53E-10,  avg # of iterations =  3.1

     total cpu time spent up to now is       81.1 secs

     total energy              =    -794.88739543 Ry
     Harris-Foulkes estimate   =    -794.88739542 Ry
     estimated scf accuracy    <       0.00000013 Ry

     iteration # 15     ecut=    90.00 Ry     beta= 0.50
     CG style diagonalization
     ethr =  4.53E-10,  avg # of iterations =  3.0

     total cpu time spent up to now is       81.4 secs

     total energy              =    -794.88739536 Ry
     Harris-Foulkes estimate   =    -794.88739543 Ry
     estimated scf accuracy    <       0.00000015 Ry

     iteration # 16     ecut=    90.00 Ry     beta= 0.50
     CG style diagonalization
     ethr =  4.53E-10,  avg # of iterations =  3.3

     total cpu time spent up to now is       81.7 secs

     total energy              =    -794.88739535 Ry
     Harris-Foulkes estimate   =    -794.88739537 Ry
     estimated scf accuracy    <       0.00000002 Ry

     iteration # 17     ecut=    90.00 Ry     beta= 0.50
     CG style diagonalization
     ethr =  1.46E-10,  avg # of iterations =  4.5

     total cpu time spent up to now is       82.0 secs

     End of self-consistent calculation

          k = 0.0000 0.0000 0.0000 ( 10635 PWs)   bands (ev):

   -18.4940  -8.2350  -5.2055  -5.2055  -5.2055   2.1102   2.1102   2.1102

     occupation numbers 
     1.0000   1.0000   1.0000   1.0000   1.0000   1.0000   1.0000   1.0000

          k = 0.0000 0.0000-0.4888 ( 10612 PWs)   bands (ev):

   -18.4808  -8.2324  -5.3168  -5.1695  -5.1695   0.9342   2.0308   2.0308

     occupation numbers 
     1.0000   1.0000   1.0000   1.0000   1.0000   1.0000   1.0000   1.0000

          k = 0.0000-0.4888-0.4888 ( 10568 PWs)   bands (ev):

   -18.4686  -8.1139  -5.4378  -5.4378  -5.1449   1.4487   1.4487   2.2110

     occupation numbers 
     1.0000   1.0000   1.0000   1.0000   1.0000   1.0000   1.0000   1.0000

          k =-0.4888-0.4888-0.4888 ( 10552 PWs)   bands (ev):

   -18.4568  -8.0451  -5.3774  -5.3774  -5.3774   1.1884   1.1884   1.1884

     occupation numbers 
     1.0000   1.0000   1.0000   1.0000   1.0000   1.0000   1.0000   1.0000

     highest occupied level (ev):     2.2110

!    total energy              =    -794.88739537 Ry
     Harris-Foulkes estimate   =    -794.88739537 Ry
     estimated scf accuracy    <          4.0E-09 Ry

     total all-electron energy =    -29807.053400 Ry

     The total energy is the sum of the following terms:

     one-electron contribution =      -5.76779966 Ry
     hartree contribution      =       9.33566842 Ry
     xc contribution           =     -36.95853309 Ry
     ewald contribution        =     -52.10942050 Ry
     one-center paw contrib.   =    -709.38731054 Ry
      -> PAW hartree energy AE =      25.60825269 Ry
      -> PAW hartree energy PS =     -25.49879515 Ry
      -> PAW xc energy AE      =    -383.52569775 Ry
      -> PAW xc energy PS      =      20.51104380 Ry
      -> total E_H with PAW    =       9.44512596 Ry
      -> total E_XC with PAW   =    -399.97318704 Ry

     convergence has been achieved in  17 iterations

     Forces acting on atoms (cartesian axes, Ry/au):

     atom    1 type  1   force =     0.00000000    0.00000000    0.00000000
     atom    2 type  2   force =     0.00000000    0.00000000    0.00000000
     The non-local contrib.  to forces
     atom    1 type  1   force =     0.00000000    0.00000000    0.00000000
     atom    2 type  2   force =     0.00000000    0.00000000    0.00000000
     The ionic contribution  to forces
     atom    1 type  1   force =    -0.00000000   -0.00000000   -0.00000000
     atom    2 type  2   force =     0.00000000    0.00000000    0.00000000
     The local contribution  to forces
     atom    1 type  1   force =     0.00000000    0.00000000    0.00000000
     atom    2 type  2   force =     0.00000000    0.00000000    0.00000000
     The core correction contribution to forces
     atom    1 type  1   force =     0.00000000    0.00000000    0.00000000
     atom    2 type  2   force =    -0.00000000   -0.00000000   -0.00000000
     The Hubbard contrib.    to forces
     atom    1 type  1   force =     0.00000000    0.00000000    0.00000000
     atom    2 type  2   force =     0.00000000    0.00000000    0.00000000
     The SCF correction term to forces
     atom    1 type  1   force =     0.00000000    0.00000000    0.00000000
     atom    2 type  2   force =    -0.00000000    0.00000000    0.00000000

     Total force =     0.000000     Total SCF correction =     0.000000


     Computing stress (Cartesian axis) and pressure

          total   stress  (Ry/bohr**3)                   (kbar)     P=    0.09
   0.00000058   0.00000000   0.00000000          0.09      0.00      0.00
   0.00000000   0.00000058   0.00000000          0.00      0.09      0.00
   0.00000000   0.00000000   0.00000058          0.00      0.00      0.09

     kinetic stress (kbar)   2816.44      0.00      0.00
                                0.00   2816.44      0.00
                                0.00      0.00   2816.44

     local   stress (kbar)  -1136.34      0.00      0.00
                                0.00  -1136.34     -0.00
                                0.00     -0.00  -1136.34

     nonloc. stress (kbar)   2329.33      0.00      0.00
                                0.00   2329.33      0.00
                                0.00      0.00   2329.33

     hartree stress (kbar)    624.32      0.00      0.00
                                0.00    624.32      0.00
                                0.00      0.00    624.32

     exc-cor stress (kbar)   4077.62      0.00      0.00
                                0.00   4077.62      0.00
                                0.00      0.00   4077.62

     corecor stress (kbar)  -5226.49     -0.00     -0.00
                               -0.00  -5226.49     -0.00
                               -0.00     -0.00  -5226.49

     ewald   stress (kbar)  -3484.78      0.00      0.00
                                0.00  -3484.78      0.00
                                0.00      0.00  -3484.78

     hubbard stress (kbar)      0.00      0.00      0.00
                                0.00      0.00      0.00
                                0.00      0.00      0.00

     london  stress (kbar)      0.00      0.00      0.00
                                0.00      0.00      0.00
                                0.00      0.00      0.00

     DFT-D3  stress (kbar)      0.00      0.00      0.00
                                0.00      0.00      0.00
                                0.00      0.00      0.00

     XDM     stress (kbar)      0.00      0.00      0.00
                                0.00      0.00      0.00
                                0.00      0.00      0.00

     dft-nl  stress (kbar)      0.00      0.00      0.00
                                0.00      0.00      0.00
                                0.00      0.00      0.00

     TS-vdW  stress (kbar)      0.00      0.00      0.00
                                0.00      0.00      0.00
                                0.00      0.00      0.00



     Writing output data file CsSnI3.save/
 
     init_run     :      0.99s CPU      1.42s WALL (       2 calls)
     electrons    :     61.99s CPU     66.46s WALL (      11 calls)
     update_pot   :      2.84s CPU      2.88s WALL (       9 calls)
     forces       :      1.42s CPU      1.55s WALL (      11 calls)
     stress       :      3.27s CPU      3.43s WALL (      11 calls)

     Called by init_run:
     wfcinit      :      0.07s CPU      0.15s WALL (       2 calls)
     wfcinit:atom :      0.00s CPU      0.00s WALL (       8 calls)
     wfcinit:wfcr :      0.07s CPU      0.15s WALL (       8 calls)
     potinit      :      0.42s CPU      0.49s WALL (       2 calls)
     hinit0       :      0.33s CPU      0.47s WALL (       2 calls)

     Called by electrons:
     c_bands      :     11.53s CPU     12.29s WALL (     205 calls)
     sum_band     :      8.50s CPU     10.21s WALL (     205 calls)
     v_of_rho     :      1.03s CPU      1.06s WALL (     215 calls)
     v_h          :      0.09s CPU      0.10s WALL (     215 calls)
     v_xc         :      1.03s CPU      1.06s WALL (     237 calls)
     newd         :      6.02s CPU      7.15s WALL (     215 calls)
     PAW_pot      :     37.62s CPU     38.38s WALL (     224 calls)
     mix_rho      :      0.26s CPU      0.30s WALL (     205 calls)

     Called by c_bands:
     init_us_2    :      0.24s CPU      0.24s WALL (    1772 calls)
     ccgdiagg     :      8.53s CPU      9.10s WALL (     820 calls)
     wfcrot       :      2.87s CPU      3.11s WALL (     780 calls)

     Called by sum_band:
     sum_band:bec :      0.01s CPU      0.02s WALL (     856 calls)
     addusdens    :      6.29s CPU      7.91s WALL (     205 calls)

     Called by *cgdiagg:
     h_psi        :      8.75s CPU      9.36s WALL (   21895 calls)
     s_psi        :      0.52s CPU      0.45s WALL (   43010 calls)
     cdiaghg      :      0.67s CPU      0.76s WALL (     780 calls)
     cdiaghg:chol :      0.08s CPU      0.09s WALL (     780 calls)
     cdiaghg:inve :      0.05s CPU      0.05s WALL (     780 calls)
     cdiaghg:para :      0.05s CPU      0.07s WALL (    1560 calls)

     Called by h_psi:
     h_psi:pot    :      8.70s CPU      9.29s WALL (   21895 calls)
     h_psi:calbec :      0.34s CPU      0.53s WALL (   21895 calls)
     vloc_psi     :      8.12s CPU      8.42s WALL (   21895 calls)
     add_vuspsi   :      0.18s CPU      0.25s WALL (   21895 calls)
     hs_1psi      :      7.24s CPU      7.66s WALL (   21115 calls)
     s_1psi       :      0.65s CPU      0.71s WALL (   21115 calls)

     General routines
     calbec       :      0.74s CPU      0.93s WALL (   44086 calls)
     fft          :      1.01s CPU      1.09s WALL (    2650 calls)
     ffts         :      0.06s CPU      0.06s WALL (     205 calls)
     fftw         :      8.72s CPU      9.03s WALL (   61286 calls)
 
     Parallel routines
     fft_scatt_xy :      0.45s CPU      0.70s WALL (   64141 calls)
     fft_scatt_yz :      7.32s CPU      6.89s WALL (   64141 calls)

     PAW routines
     PAW_pot      :     37.62s CPU     38.38s WALL (     224 calls)
     PAW_symme    :      1.31s CPU      1.33s WALL (     429 calls)
 
     PWSCF        :   1m15.27s CPU   1m22.50s WALL

 
   This run was terminated on:  19:23:59  12Jan2021            

=------------------------------------------------------------------------------=
   JOB DONE.
=------------------------------------------------------------------------------=
