
     Program PWSCF v.6.4.1 starts on 12Jan2021 at 18:31:30 

     This program is part of the open-source Quantum ESPRESSO suite
     for quantum simulation of materials; please cite
         "P. Giannozzi et al., J. Phys.:Condens. Matter 21 395502 (2009);
         "P. Giannozzi et al., J. Phys.:Condens. Matter 29 465901 (2017);
          URL http://www.quantum-espresso.org", 
     in publications or presentations arising from this work. More details at
     http://www.quantum-espresso.org/quote

     Parallel version (MPI & OpenMP), running on      48 processor cores
     Number of MPI processes:                48
     Threads/MPI process:                     1

     MPI processes distributed on     1 nodes
     R & G space division:  proc/nbgrp/npool/nimage =      48
     Waiting for input...
     Reading input from standard input

     Current dimensions of program PWSCF are:
     Max number of different atomic species (ntypx) = 10
     Max number of k-points (npk) =  40000
     Max angular momentum in pseudopotentials (lmaxx) =  3
               file Cs.pbe-spn-kjpaw_psl.1.0.0.UPF: wavefunction(s)  5S 6S renormalized
               file Sn.pbe-dn-kjpaw_psl.1.0.0.UPF: wavefunction(s)  5S 5P 4D renormalized
               file I.pbe-n-kjpaw_psl.1.0.0.UPF: wavefunction(s)  5S renormalized

     Subspace diagonalization in iterative solution of the eigenvalue problem:
     one sub-group per band group will be used
     scalapack distributed-memory algorithm (size of sub-group:  4*  4 procs)

     Message from routine setup:
     DEPRECATED: symmetry with ibrav=0, use correct ibrav instead
 
     Parallelization info
     --------------------
     sticks:   dense  smooth     PW     G-vecs:    dense   smooth      PW
     Min          86      86     23                10498    10498    1499
     Max          87      87     24                10509    10509    1512
     Sum        4145    4145   1133               504115   504115   72215
 

     Title: 
     CsSnI3                                                                     


     bravais-lattice index     =            0
     lattice parameter (alat)  =       9.1317  a.u.
     unit-cell volume          =    6370.5385 (a.u.)^3
     number of atoms/cell      =           20
     number of atomic types    =            3
     number of electrons       =       176.00
     number of Kohn-Sham states=           88
     kinetic-energy cutoff     =      70.0000  Ry
     charge density cutoff     =     280.0000  Ry
     convergence threshold     =      1.0E-06
     mixing beta               =       0.5000
     number of iterations used =            8  plain     mixing
     Exchange-correlation      = SLA PW PBX PBC ( 1  4  3  4 0 0)
     nstep                     =           50


     celldm(1)=   9.131705  celldm(2)=   0.000000  celldm(3)=   0.000000
     celldm(4)=   0.000000  celldm(5)=   0.000000  celldm(6)=   0.000000

     crystal axes: (cart. coord. in units of alat)
               a(1) = (   1.000000   0.000000   0.000000 )  
               a(2) = (   0.000000   2.227728   0.000000 )  
               a(3) = (   0.000000   0.000000   3.755420 )  

     reciprocal axes: (cart. coord. in units 2 pi/alat)
               b(1) = (  1.000000  0.000000  0.000000 )  
               b(2) = (  0.000000  0.448888  0.000000 )  
               b(3) = (  0.000000  0.000000  0.266282 )  


     PseudoPot. # 1 for Cs read from file:
     ../../../pseudo/Cs.pbe-spn-kjpaw_psl.1.0.0.UPF
     MD5 check sum: b82c75cc2e1f4ff73b6412cffeb9c584
     Pseudo is Projector augmented-wave + core cor, Zval =  9.0
     Generated using "atomic" code by A. Dal Corso v.6.4.1
     Shape of augmentation charge: PSQ
     Using radial grid of 1251 points,  9 beta functions with: 
                l(1) =   0
                l(2) =   0
                l(3) =   0
                l(4) =   1
                l(5) =   1
                l(6) =   2
                l(7) =   2
                l(8) =   3
                l(9) =   3
     Q(r) pseudized with 0 coefficients 


     PseudoPot. # 2 for Sn read from file:
     ../../../pseudo/Sn.pbe-dn-kjpaw_psl.1.0.0.UPF
     MD5 check sum: 67f11dec737d427557dc41ea34975807
     Pseudo is Projector augmented-wave + core cor, Zval = 14.0
     Generated using "atomic" code by A. Dal Corso v.6.3
     Shape of augmentation charge: PSQ
     Using radial grid of 1243 points,  6 beta functions with: 
                l(1) =   0
                l(2) =   0
                l(3) =   1
                l(4) =   1
                l(5) =   2
                l(6) =   2
     Q(r) pseudized with 0 coefficients 


     PseudoPot. # 3 for I  read from file:
     ../../../pseudo/I.pbe-n-kjpaw_psl.1.0.0.UPF
     MD5 check sum: cd3d296c3308a581e1559a0c8a554cb5
     Pseudo is Projector augmented-wave + core cor, Zval =  7.0
     Generated using "atomic" code by A. Dal Corso v.6.3
     Shape of augmentation charge: PSQ
     Using radial grid of 1247 points,  6 beta functions with: 
                l(1) =   0
                l(2) =   0
                l(3) =   1
                l(4) =   1
                l(5) =   2
                l(6) =   2
     Q(r) pseudized with 0 coefficients 


     atomic species   valence    mass     pseudopotential
        Cs             9.00   132.90000     Cs( 1.00)
        Sn            14.00   118.70000     Sn( 1.00)
        I              7.00   126.90000     I ( 1.00)

      2 Sym. Ops. (no inversion) found ( 1 have fractional translation)


                                    s                        frac. trans.

      isym =  1     identity                                     

 cryst.   s( 1) = (     1          0          0      )
                  (     0          1          0      )
                  (     0          0          1      )

 cart.    s( 1) = (  1.0000000  0.0000000  0.0000000 )
                  (  0.0000000  1.0000000  0.0000000 )
                  (  0.0000000  0.0000000  1.0000000 )


      isym =  2     inv. 180 deg rotation - cart. axis [1,0,0]   

 cryst.   s( 2) = (    -1          0          0      )    f =(  0.5000000 )
                  (     0          1          0      )       (  0.0000000 )
                  (     0          0          1      )       (  0.0000000 )

 cart.    s( 2) = ( -1.0000000  0.0000000  0.0000000 )    f =(  0.5000000 )
                  (  0.0000000  1.0000000  0.0000000 )       (  0.0000000 )
                  (  0.0000000  0.0000000  1.0000000 )       (  0.0000000 )


   Cartesian axes

     site n.     atom                  positions (alat units)
         1           Cs  tau(   1) = (   0.2500000   0.0834770   0.6701820  )
         2           Cs  tau(   2) = (   0.7500000   0.9165230   0.3298180  )
         3           Cs  tau(   3) = (   0.2500000   0.5834770   0.8298180  )
         4           Cs  tau(   4) = (   0.7500000   0.4165230   0.1701820  )
         5           Sn  tau(   5) = (   0.2500000   0.3418600   0.4389780  )
         6           Sn  tau(   6) = (   0.7500000   0.6581400   0.5610220  )
         7           Sn  tau(   7) = (   0.2500000   0.8418600   0.0610220  )
         8           Sn  tau(   8) = (   0.7500000   0.1581400   0.9389780  )
         9           I   tau(   9) = (   0.7500000   0.0261000   0.1119070  )
        10           I   tau(  10) = (   0.2500000   0.9739000   0.8880930  )
        11           I   tau(  11) = (   0.7500000   0.5261000   0.3880930  )
        12           I   tau(  12) = (   0.2500000   0.4739000   0.6119070  )
        13           I   tau(  13) = (   0.7500000   0.2931740   0.7918740  )
        14           I   tau(  14) = (   0.2500000   0.7068260   0.2081260  )
        15           I   tau(  15) = (   0.7500000   0.7931740   0.7081260  )
        16           I   tau(  16) = (   0.2500000   0.2068260   0.2918740  )
        17           I   tau(  17) = (   0.7500000   0.1684960   0.4988740  )
        18           I   tau(  18) = (   0.2500000   0.8315040   0.5011260  )
        19           I   tau(  19) = (   0.7500000   0.6684960   0.0011260  )
        20           I   tau(  20) = (   0.2500000   0.3315040   0.9988740  )

   Crystallographic axes

     site n.     atom                  positions (cryst. coord.)
         1           Cs  tau(   1) = (  0.2500000  0.0374718  0.1784573  )
         2           Cs  tau(   2) = (  0.7500000  0.4114161  0.0878245  )
         3           Cs  tau(   3) = (  0.2500000  0.2619158  0.2209654  )
         4           Cs  tau(   4) = (  0.7500000  0.1869721  0.0453164  )
         5           Sn  tau(   5) = (  0.2500000  0.1534568  0.1168919  )
         6           Sn  tau(   6) = (  0.7500000  0.2954311  0.1493900  )
         7           Sn  tau(   7) = (  0.2500000  0.3779008  0.0162490  )
         8           Sn  tau(   8) = (  0.7500000  0.0709871  0.2500328  )
         9           I   tau(   9) = (  0.7500000  0.0117160  0.0297988  )
        10           I   tau(  10) = (  0.2500000  0.4371719  0.2364830  )
        11           I   tau(  11) = (  0.7500000  0.2361599  0.1033421  )
        12           I   tau(  12) = (  0.2500000  0.2127280  0.1629397  )
        13           I   tau(  13) = (  0.7500000  0.1316023  0.2108617  )
        14           I   tau(  14) = (  0.2500000  0.3172856  0.0554202  )
        15           I   tau(  15) = (  0.7500000  0.3560462  0.1885611  )
        16           I   tau(  16) = (  0.2500000  0.0928417  0.0777207  )
        17           I   tau(  17) = (  0.7500000  0.0756358  0.1328411  )
        18           I   tau(  18) = (  0.2500000  0.3732521  0.1334407  )
        19           I   tau(  19) = (  0.7500000  0.3000798  0.0002998  )
        20           I   tau(  20) = (  0.2500000  0.1488081  0.2659820  )

     number of k points=     8
                       cart. coord. in units 2pi/alat
        k(    1) = (   0.0000000   0.0000000   0.0000000), wk =   0.2500000
        k(    2) = (   0.0000000   0.0000000  -0.1331409), wk =   0.2500000
        k(    3) = (   0.0000000  -0.2244440   0.0000000), wk =   0.2500000
        k(    4) = (   0.0000000  -0.2244440  -0.1331409), wk =   0.2500000
        k(    5) = (  -0.5000000   0.0000000   0.0000000), wk =   0.2500000
        k(    6) = (  -0.5000000   0.0000000  -0.1331409), wk =   0.2500000
        k(    7) = (  -0.5000000  -0.2244440   0.0000000), wk =   0.2500000
        k(    8) = (  -0.5000000  -0.2244440  -0.1331409), wk =   0.2500000

                       cryst. coord.
        k(    1) = (   0.0000000   0.0000000   0.0000000), wk =   0.2500000
        k(    2) = (   0.0000000   0.0000000  -0.5000000), wk =   0.2500000
        k(    3) = (   0.0000000  -0.5000000   0.0000000), wk =   0.2500000
        k(    4) = (   0.0000000  -0.5000000  -0.5000000), wk =   0.2500000
        k(    5) = (  -0.5000000   0.0000000   0.0000000), wk =   0.2500000
        k(    6) = (  -0.5000000   0.0000000  -0.5000000), wk =   0.2500000
        k(    7) = (  -0.5000000  -0.5000000   0.0000000), wk =   0.2500000
        k(    8) = (  -0.5000000  -0.5000000  -0.5000000), wk =   0.2500000

     Dense  grid:   504115 G-vectors     FFT dimensions: (  50, 120, 192)

     Dynamical RAM for                 wfc:       1.76 MB

     Dynamical RAM for     wfc (w. buffer):      15.86 MB

     Dynamical RAM for           str. fact:       0.48 MB

     Dynamical RAM for           local pot:       0.00 MB

     Dynamical RAM for          nlocal pot:       8.41 MB

     Dynamical RAM for                qrad:      35.12 MB

     Dynamical RAM for          rho,v,vnew:       1.03 MB

     Dynamical RAM for               rhoin:       0.34 MB

     Dynamical RAM for            rho*nmix:       2.56 MB

     Dynamical RAM for           G-vectors:       0.68 MB

     Dynamical RAM for          h,s,v(r/c):       0.02 MB

     Dynamical RAM for          <psi|beta>:       0.56 MB

     Dynamical RAM for      wfcinit/wfcrot:       4.41 MB

     Dynamical RAM for           addusdens:      96.13 MB

     Dynamical RAM for          addusforce:     103.84 MB

     Dynamical RAM for         addusstress:      98.53 MB

     Estimated static dynamical RAM per process >      66.04 MB

     Estimated max dynamical RAM per process >     169.87 MB

     Estimated total dynamical RAM >       7.96 GB

     Initial potential from superposition of free atoms

     starting charge  175.83511, renormalised to  176.00000

     negative rho (up, down):  6.695E-04 0.000E+00
     Starting wfcs are  104 randomized atomic wfcs
     Checking if some PAW data can be deallocated... 
       PAW data deallocated on   36 nodes for type:  1
       PAW data deallocated on   36 nodes for type:  2
       PAW data deallocated on   24 nodes for type:  3

     total cpu time spent up to now is        7.8 secs

     Self-consistent Calculation

     iteration #  1     ecut=    70.00 Ry     beta= 0.50
     CG style diagonalization
     c_bands:  3 eigenvalues not converged
     c_bands:  1 eigenvalues not converged
     c_bands:  2 eigenvalues not converged
     c_bands:  1 eigenvalues not converged
     ethr =  1.00E-02,  avg # of iterations =  7.6

     negative rho (up, down):  8.477E+00 0.000E+00

     total cpu time spent up to now is       71.1 secs

     total energy              =   -7779.45737516 Ry
     Harris-Foulkes estimate   =   -7800.84275364 Ry
     estimated scf accuracy    <     260.57750707 Ry

     iteration #  2     ecut=    70.00 Ry     beta= 0.50
     CG style diagonalization
     c_bands:  1 eigenvalues not converged
     c_bands:  1 eigenvalues not converged
     c_bands:  1 eigenvalues not converged
     ethr =  1.00E-02,  avg # of iterations =  7.3

     negative rho (up, down):  7.793E+00 0.000E+00

     total cpu time spent up to now is      125.3 secs

     total energy              =   -7771.01709062 Ry
     Harris-Foulkes estimate   =   -7820.36786400 Ry
     estimated scf accuracy    <     147.89706343 Ry

     iteration #  3     ecut=    70.00 Ry     beta= 0.50
     CG style diagonalization
     c_bands:  3 eigenvalues not converged
     c_bands:  2 eigenvalues not converged
     c_bands:  4 eigenvalues not converged
     c_bands:  2 eigenvalues not converged
     c_bands:  2 eigenvalues not converged
     c_bands:  2 eigenvalues not converged
     c_bands:  4 eigenvalues not converged
     c_bands:  4 eigenvalues not converged
     ethr =  1.00E-02,  avg # of iterations =  6.3

     negative rho (up, down):  3.810E+00 0.000E+00

     total cpu time spent up to now is      170.4 secs

     total energy              =   -7788.67653680 Ry
     Harris-Foulkes estimate   =   -7815.69988540 Ry
     estimated scf accuracy    <   52968.77430507 Ry

     iteration #  4     ecut=    70.00 Ry     beta= 0.50
     CG style diagonalization
     ethr =  1.00E-02,  avg # of iterations =  4.7

     negative rho (up, down):  3.839E+00 0.000E+00

     total cpu time spent up to now is      202.5 secs

     total energy              =   -7800.63055274 Ry
     Harris-Foulkes estimate   =   -7804.18246096 Ry
     estimated scf accuracy    <     164.28266313 Ry

     iteration #  5     ecut=    70.00 Ry     beta= 0.50
     CG style diagonalization
     c_bands:  1 eigenvalues not converged
     c_bands:  1 eigenvalues not converged
     c_bands:  1 eigenvalues not converged
     c_bands:  1 eigenvalues not converged
     c_bands:  1 eigenvalues not converged
     c_bands:  1 eigenvalues not converged
     c_bands:  1 eigenvalues not converged
     ethr =  1.00E-02,  avg # of iterations =  3.7

     negative rho (up, down):  3.653E+00 0.000E+00

     total cpu time spent up to now is      226.5 secs

     total energy              =   -7800.06077068 Ry
     Harris-Foulkes estimate   =   -7807.64004062 Ry
     estimated scf accuracy    <   47068.63797442 Ry

     iteration #  6     ecut=    70.00 Ry     beta= 0.50
     CG style diagonalization
     ethr =  1.00E-02,  avg # of iterations =  3.2

     negative rho (up, down):  3.706E+00 0.000E+00

     total cpu time spent up to now is      248.0 secs

     total energy              =   -7802.66177211 Ry
     Harris-Foulkes estimate   =   -7802.41983662 Ry
     estimated scf accuracy    <    2852.29184158 Ry

     iteration #  7     ecut=    70.00 Ry     beta= 0.50
     CG style diagonalization
     ethr =  1.00E-02,  avg # of iterations =  3.0

     negative rho (up, down):  3.844E+00 0.000E+00

     total cpu time spent up to now is      266.4 secs

     total energy              =   -7802.85578680 Ry
     Harris-Foulkes estimate   =   -7803.05117473 Ry
     estimated scf accuracy    <    3065.14532425 Ry

     iteration #  8     ecut=    70.00 Ry     beta= 0.50
     CG style diagonalization
     ethr =  1.00E-02,  avg # of iterations =  3.0

     negative rho (up, down):  3.363E+00 0.000E+00

     total cpu time spent up to now is      284.9 secs

     total energy              =   -7809.99689952 Ry
     Harris-Foulkes estimate   =   -7803.24100690 Ry
     estimated scf accuracy    <    3542.90637292 Ry

     iteration #  9     ecut=    70.00 Ry     beta= 0.50
     CG style diagonalization
     c_bands:  1 eigenvalues not converged
     c_bands:  1 eigenvalues not converged
     c_bands:  1 eigenvalues not converged
     c_bands:  1 eigenvalues not converged
     c_bands:  1 eigenvalues not converged
     c_bands:  2 eigenvalues not converged
     c_bands:  1 eigenvalues not converged
     c_bands:  1 eigenvalues not converged
     ethr =  1.00E-02,  avg # of iterations =  3.4

     negative rho (up, down):  2.948E+00 0.000E+00

     total cpu time spent up to now is      306.5 secs

     total energy              =   -7784.51525244 Ry
     Harris-Foulkes estimate   =   -7846.17320567 Ry
     estimated scf accuracy    <  113098.50908698 Ry

     iteration # 10     ecut=    70.00 Ry     beta= 0.50
     CG style diagonalization
     ethr =  1.00E-02,  avg # of iterations =  3.7

     negative rho (up, down):  5.060E+00 0.000E+00

     total cpu time spent up to now is      330.8 secs

     total energy              =   -7801.75548639 Ry
     Harris-Foulkes estimate   =   -7804.22123458 Ry
     estimated scf accuracy    <      19.88728183 Ry

     iteration # 11     ecut=    70.00 Ry     beta= 0.50
     CG style diagonalization
     c_bands:  4 eigenvalues not converged
     c_bands:  2 eigenvalues not converged
     c_bands:  2 eigenvalues not converged
     c_bands:  2 eigenvalues not converged
     c_bands:  2 eigenvalues not converged
     c_bands:  3 eigenvalues not converged
     c_bands:  2 eigenvalues not converged
     c_bands:  2 eigenvalues not converged
     ethr =  1.00E-02,  avg # of iterations =  4.3

     negative rho (up, down):  2.733E+00 0.000E+00

     total cpu time spent up to now is      359.8 secs

     total energy              =   -7797.34606177 Ry
     Harris-Foulkes estimate   =   -7814.61407630 Ry
     estimated scf accuracy    <   55270.07188193 Ry

     iteration # 12     ecut=    70.00 Ry     beta= 0.50
     CG style diagonalization
     c_bands:  1 eigenvalues not converged
     c_bands:  2 eigenvalues not converged
     c_bands:  2 eigenvalues not converged
     c_bands:  3 eigenvalues not converged
     c_bands:  1 eigenvalues not converged
     c_bands:  1 eigenvalues not converged
     ethr =  1.00E-02,  avg # of iterations =  4.6

     negative rho (up, down):  2.660E+00 0.000E+00

     total cpu time spent up to now is      391.0 secs

     total energy              =   -7825.21280831 Ry
     Harris-Foulkes estimate   =   -7848.42397241 Ry
     estimated scf accuracy    <   97776.12354502 Ry

     iteration # 13     ecut=    70.00 Ry     beta= 0.50
     CG style diagonalization
     ethr =  1.00E-02,  avg # of iterations =  3.3

     negative rho (up, down):  3.098E+00 0.000E+00

     total cpu time spent up to now is      412.3 secs

     total energy              =   -7849.89550066 Ry
     Harris-Foulkes estimate   =   -7830.55863465 Ry
     estimated scf accuracy    <  114573.21185726 Ry

     iteration # 14     ecut=    70.00 Ry     beta= 0.50
     CG style diagonalization
     ethr =  1.00E-02,  avg # of iterations =  3.2

     negative rho (up, down):  3.047E+00 0.000E+00

     total cpu time spent up to now is      432.1 secs

     total energy              =   -7828.23687421 Ry
     Harris-Foulkes estimate   =   -7854.40449035 Ry
     estimated scf accuracy    <  133437.54945962 Ry

     iteration # 15     ecut=    70.00 Ry     beta= 0.50
     CG style diagonalization
     ethr =  1.00E-02,  avg # of iterations =  3.0

     negative rho (up, down):  2.860E+00 0.000E+00

     total cpu time spent up to now is      451.0 secs

     total energy              =   -7838.85171522 Ry
     Harris-Foulkes estimate   =   -7829.05625999 Ry
     estimated scf accuracy    <  131907.05980895 Ry

     iteration # 16     ecut=    70.00 Ry     beta= 0.50
     CG style diagonalization
     ethr =  1.00E-02,  avg # of iterations =  3.1

     negative rho (up, down):  2.445E+00 0.000E+00

     total cpu time spent up to now is      470.0 secs

     total energy              =   -7813.21818327 Ry
     Harris-Foulkes estimate   =   -7840.73999085 Ry
     estimated scf accuracy    <  134014.76838179 Ry

     iteration # 17     ecut=    70.00 Ry     beta= 0.50
     CG style diagonalization
     ethr =  1.00E-02,  avg # of iterations =  3.2

     negative rho (up, down):  2.271E+00 0.000E+00

     total cpu time spent up to now is      490.1 secs

     total energy              =   -7791.87411685 Ry
     Harris-Foulkes estimate   =   -7816.73199895 Ry
     estimated scf accuracy    <  115759.53741952 Ry

     iteration # 18     ecut=    70.00 Ry     beta= 0.50
     CG style diagonalization
     c_bands:  1 eigenvalues not converged
     c_bands:  1 eigenvalues not converged
     c_bands:  1 eigenvalues not converged
     c_bands:  1 eigenvalues not converged
     ethr =  1.00E-02,  avg # of iterations =  3.3

     negative rho (up, down):  2.631E+00 0.000E+00

     total cpu time spent up to now is      511.6 secs

     total energy              =   -7802.92565095 Ry
     Harris-Foulkes estimate   =   -7803.45035950 Ry
     estimated scf accuracy    <     267.69648659 Ry

     iteration # 19     ecut=    70.00 Ry     beta= 0.50
     CG style diagonalization
     ethr =  1.00E-02,  avg # of iterations =  3.1

     negative rho (up, down):  3.851E+00 0.000E+00

     total cpu time spent up to now is      532.1 secs

     total energy              =   -7803.64808816 Ry
     Harris-Foulkes estimate   =   -7803.97301501 Ry
     estimated scf accuracy    <     365.46026507 Ry

     iteration # 20     ecut=    70.00 Ry     beta= 0.50
     CG style diagonalization
     ethr =  1.00E-02,  avg # of iterations =  3.2

     negative rho (up, down):  5.372E+00 0.000E+00

     total cpu time spent up to now is      552.1 secs

     total energy              =   -7805.22522615 Ry
     Harris-Foulkes estimate   =   -7804.66819490 Ry
     estimated scf accuracy    <     342.79773992 Ry

     iteration # 21     ecut=    70.00 Ry     beta= 0.50
     CG style diagonalization
     c_bands:  1 eigenvalues not converged
     c_bands:  1 eigenvalues not converged
     c_bands:  1 eigenvalues not converged
     c_bands:  1 eigenvalues not converged
     ethr =  1.00E-02,  avg # of iterations =  3.3

     negative rho (up, down):  6.034E+00 0.000E+00

     total cpu time spent up to now is      573.0 secs

     total energy              =   -7824.64856391 Ry
     Harris-Foulkes estimate   =   -7820.98152395 Ry
     estimated scf accuracy    <   29157.03246379 Ry

     iteration # 22     ecut=    70.00 Ry     beta= 0.50
     CG style diagonalization
     c_bands:  1 eigenvalues not converged
     c_bands:  1 eigenvalues not converged
     c_bands:  1 eigenvalues not converged
     c_bands:  1 eigenvalues not converged
     c_bands:  1 eigenvalues not converged
     c_bands:  1 eigenvalues not converged
     ethr =  1.00E-02,  avg # of iterations =  3.3

     negative rho (up, down):  8.044E+00 0.000E+00

     total cpu time spent up to now is      594.1 secs

     total energy              =   -7745.86110719 Ry
     Harris-Foulkes estimate   =   -7843.63879087 Ry
     estimated scf accuracy    <   91398.52116651 Ry

     iteration # 23     ecut=    70.00 Ry     beta= 0.50
     CG style diagonalization
     c_bands:  1 eigenvalues not converged
     c_bands:  1 eigenvalues not converged
     c_bands:  1 eigenvalues not converged
     ethr =  1.00E-02,  avg # of iterations =  3.7

     negative rho (up, down):  7.144E+00 0.000E+00

     total cpu time spent up to now is      618.0 secs

     total energy              =   -7809.50929730 Ry
     Harris-Foulkes estimate   =   -7807.30167138 Ry
     estimated scf accuracy    <    1828.40968903 Ry

     iteration # 24     ecut=    70.00 Ry     beta= 0.50
     CG style diagonalization
     c_bands:  1 eigenvalues not converged
     c_bands:  1 eigenvalues not converged
     c_bands:  1 eigenvalues not converged
     c_bands:  1 eigenvalues not converged
     c_bands:  1 eigenvalues not converged
     c_bands:  1 eigenvalues not converged
     c_bands:  1 eigenvalues not converged
     ethr =  1.00E-02,  avg # of iterations =  4.4

     negative rho (up, down):  3.374E+00 0.000E+00

     total cpu time spent up to now is      648.1 secs

     total energy              =   -7796.03069059 Ry
     Harris-Foulkes estimate   =   -7820.45769837 Ry
     estimated scf accuracy    <   21132.21780658 Ry

     iteration # 25     ecut=    70.00 Ry     beta= 0.50
     CG style diagonalization
     c_bands:  2 eigenvalues not converged
     c_bands:  1 eigenvalues not converged
     c_bands:  1 eigenvalues not converged
     c_bands:  1 eigenvalues not converged
     c_bands:  1 eigenvalues not converged
     c_bands:  1 eigenvalues not converged
     ethr =  1.00E-02,  avg # of iterations =  3.5

     negative rho (up, down):  3.685E+00 0.000E+00

     total cpu time spent up to now is      670.9 secs

     total energy              =   -7831.11780846 Ry
     Harris-Foulkes estimate   =   -7813.74534943 Ry
     estimated scf accuracy    <   17970.64836008 Ry

     iteration # 26     ecut=    70.00 Ry     beta= 0.50
     CG style diagonalization
     c_bands:  2 eigenvalues not converged
     c_bands:  2 eigenvalues not converged
     c_bands:  2 eigenvalues not converged
     ethr =  1.00E-02,  avg # of iterations =  3.7

     negative rho (up, down):  3.441E+00 0.000E+00

     total cpu time spent up to now is      695.3 secs

     total energy              =   -7835.40654293 Ry
     Harris-Foulkes estimate   =   -7876.21136778 Ry
     estimated scf accuracy    <  125410.25519815 Ry

     iteration # 27     ecut=    70.00 Ry     beta= 0.50
     CG style diagonalization
     ethr =  1.00E-02,  avg # of iterations =  3.2

     negative rho (up, down):  6.950E+00 0.000E+00

     total cpu time spent up to now is      715.5 secs

     total energy              =   -7847.98769247 Ry
     Harris-Foulkes estimate   =   -7839.43309764 Ry
     estimated scf accuracy    <  128898.48440946 Ry

     iteration # 28     ecut=    70.00 Ry     beta= 0.50
     CG style diagonalization
     c_bands:  1 eigenvalues not converged
     c_bands:  1 eigenvalues not converged
     c_bands:  1 eigenvalues not converged
     c_bands:  1 eigenvalues not converged
     c_bands:  1 eigenvalues not converged
     c_bands:  1 eigenvalues not converged
     ethr =  1.00E-02,  avg # of iterations =  3.7

     negative rho (up, down):  8.048E+00 0.000E+00

     total cpu time spent up to now is      739.5 secs

     total energy              =   -7790.18322136 Ry
     Harris-Foulkes estimate   =   -7861.72142209 Ry
     estimated scf accuracy    <  158468.13463088 Ry

     iteration # 29     ecut=    70.00 Ry     beta= 0.50
     CG style diagonalization
     c_bands:  2 eigenvalues not converged
     c_bands:  1 eigenvalues not converged
     c_bands:  3 eigenvalues not converged
     c_bands:  2 eigenvalues not converged
     c_bands:  2 eigenvalues not converged
     c_bands:  2 eigenvalues not converged
     c_bands:  1 eigenvalues not converged
     ethr =  1.00E-02,  avg # of iterations =  4.4

     negative rho (up, down):  1.517E+01 0.000E+00

     total cpu time spent up to now is      768.9 secs

     total energy              =   -7814.00936466 Ry
     Harris-Foulkes estimate   =   -7844.51292652 Ry
     estimated scf accuracy    <  133070.68914293 Ry

     iteration # 30     ecut=    70.00 Ry     beta= 0.50
     CG style diagonalization
     c_bands:  3 eigenvalues not converged
     c_bands:  3 eigenvalues not converged
     c_bands:  3 eigenvalues not converged
     c_bands:  4 eigenvalues not converged
     c_bands:  4 eigenvalues not converged
     c_bands:  1 eigenvalues not converged
     c_bands:  4 eigenvalues not converged
     c_bands:  3 eigenvalues not converged
     ethr =  1.00E-02,  avg # of iterations =  5.4

     negative rho (up, down):  1.865E+01 0.000E+00

     total cpu time spent up to now is      806.8 secs

     total energy              =   -7680.59004947 Ry
     Harris-Foulkes estimate   =   -7917.64944247 Ry
     estimated scf accuracy    <  142613.42019798 Ry

     iteration # 31     ecut=    70.00 Ry     beta= 0.50
     CG style diagonalization
     c_bands:  1 eigenvalues not converged
     c_bands:  2 eigenvalues not converged
     c_bands:  1 eigenvalues not converged
     c_bands:  1 eigenvalues not converged
     c_bands:  1 eigenvalues not converged
     ethr =  1.00E-02,  avg # of iterations = 14.7

     negative rho (up, down):  1.265E+01 0.000E+00

     total cpu time spent up to now is      913.7 secs

     total energy              =   -7878.10440833 Ry
     Harris-Foulkes estimate   =   -7914.09636024 Ry
     estimated scf accuracy    <  212206.92545553 Ry

     iteration # 32     ecut=    70.00 Ry     beta= 0.50
     CG style diagonalization
     c_bands:  1 eigenvalues not converged
     c_bands:  1 eigenvalues not converged
     ethr =  1.00E-02,  avg # of iterations =  3.9

     negative rho (up, down):  4.322E+00 0.000E+00

     total cpu time spent up to now is      939.3 secs

     total energy              =   -7965.11693635 Ry
     Harris-Foulkes estimate   =   -7889.37640584 Ry
     estimated scf accuracy    <  200311.64098852 Ry

     iteration # 33     ecut=    70.00 Ry     beta= 0.50
     CG style diagonalization
     c_bands:  1 eigenvalues not converged
     c_bands:  2 eigenvalues not converged
     c_bands:  2 eigenvalues not converged
     c_bands:  1 eigenvalues not converged
     ethr =  1.00E-02,  avg # of iterations =  6.2

     negative rho (up, down):  4.854E+00 0.000E+00

     total cpu time spent up to now is      984.3 secs

     total energy              =   -7996.90221681 Ry
     Harris-Foulkes estimate   =   -8010.24503827 Ry
     estimated scf accuracy    <  148421.21607457 Ry

     iteration # 34     ecut=    70.00 Ry     beta= 0.50
     CG style diagonalization
     ethr =  1.00E-02,  avg # of iterations =  3.9

     negative rho (up, down):  5.013E+01 0.000E+00

     total cpu time spent up to now is     1009.9 secs

     total energy              =   -7772.74073172 Ry
     Harris-Foulkes estimate   =   -8004.32853037 Ry
     estimated scf accuracy    <  158788.23559854 Ry

     iteration # 35     ecut=    70.00 Ry     beta= 0.50
     CG style diagonalization
     c_bands:  4 eigenvalues not converged
     c_bands:  3 eigenvalues not converged
     c_bands:  4 eigenvalues not converged
     c_bands:  5 eigenvalues not converged
     c_bands:  2 eigenvalues not converged
     c_bands:  3 eigenvalues not converged
     c_bands:  5 eigenvalues not converged
     ethr =  1.00E-02,  avg # of iterations = 39.8

     negative rho (up, down):  6.560E+01 0.000E+00

     total cpu time spent up to now is     1305.7 secs

     total energy              =  -10225.78349842 Ry
     Harris-Foulkes estimate   =  -10023.97451096 Ry
     estimated scf accuracy    <  224096.44683267 Ry

     iteration # 36     ecut=    70.00 Ry     beta= 0.50
     CG style diagonalization
     c_bands:  1 eigenvalues not converged
     c_bands:  1 eigenvalues not converged
     c_bands:  3 eigenvalues not converged
     c_bands:  1 eigenvalues not converged
     c_bands:  2 eigenvalues not converged
     ethr =  1.00E-02,  avg # of iterations =  4.2

     negative rho (up, down):  8.511E+01 0.000E+00

     total cpu time spent up to now is     1333.5 secs

     total energy              =   -7774.38779353 Ry
     Harris-Foulkes estimate   =  -10252.03292289 Ry
     estimated scf accuracy    <  191564.45872491 Ry

     iteration # 37     ecut=    70.00 Ry     beta= 0.50
     CG style diagonalization
     c_bands:  4 eigenvalues not converged
     c_bands:  4 eigenvalues not converged
     c_bands:  4 eigenvalues not converged
     c_bands:  4 eigenvalues not converged
     c_bands:  5 eigenvalues not converged
     c_bands:  5 eigenvalues not converged
     c_bands:  3 eigenvalues not converged
     c_bands:  5 eigenvalues not converged
     ethr =  1.00E-02,  avg # of iterations = 13.1

     negative rho (up, down):  3.022E+01 0.000E+00

     total cpu time spent up to now is     1427.7 secs

     total energy              =   -7090.30547048 Ry
     Harris-Foulkes estimate   =   -9289.71373660 Ry
     estimated scf accuracy    <   49504.26716878 Ry

     iteration # 38     ecut=    70.00 Ry     beta= 0.50
     CG style diagonalization
     c_bands:  3 eigenvalues not converged
     ethr =  1.00E-02,  avg # of iterations = 39.3

     negative rho (up, down):  1.738E+02 0.000E+00

     total cpu time spent up to now is     1718.8 secs

     total energy              =   -8257.41943554 Ry
     Harris-Foulkes estimate   =   -8308.36918275 Ry
     estimated scf accuracy    <  225075.59998543 Ry

     iteration # 39     ecut=    70.00 Ry     beta= 0.50
     CG style diagonalization
     c_bands:  2 eigenvalues not converged
     c_bands:  2 eigenvalues not converged
     c_bands:  1 eigenvalues not converged
     c_bands:  3 eigenvalues not converged
     c_bands:  3 eigenvalues not converged
     c_bands:  1 eigenvalues not converged
     ethr =  1.00E-02,  avg # of iterations = 57.8

     negative rho (up, down):  6.738E+01 0.000E+00

     total cpu time spent up to now is     2149.5 secs

     total energy              =   -7261.84320826 Ry
     Harris-Foulkes estimate   =  -13399.81504083 Ry
     estimated scf accuracy    <  324399.77344862 Ry

     iteration # 40     ecut=    70.00 Ry     beta= 0.50
     CG style diagonalization
     c_bands:  3 eigenvalues not converged
     c_bands:  3 eigenvalues not converged
     c_bands:  1 eigenvalues not converged
     c_bands:  3 eigenvalues not converged
     c_bands:  2 eigenvalues not converged
     c_bands:  3 eigenvalues not converged
     c_bands:  4 eigenvalues not converged
     ethr =  1.00E-02,  avg # of iterations = 50.6

     negative rho (up, down):  4.637E+01 0.000E+00

     total cpu time spent up to now is     2522.4 secs

     total energy              =   -9327.81661179 Ry
     Harris-Foulkes estimate   =   -9741.36321257 Ry
     estimated scf accuracy    <  133202.27812509 Ry

     iteration # 41     ecut=    70.00 Ry     beta= 0.50
     CG style diagonalization
     c_bands:  5 eigenvalues not converged
     c_bands:  2 eigenvalues not converged
     c_bands:  1 eigenvalues not converged
     ethr =  1.00E-02,  avg # of iterations = 29.8

     negative rho (up, down):  2.301E+01 0.000E+00

     total cpu time spent up to now is     2736.4 secs

     total energy              =   -7137.21612436 Ry
     Harris-Foulkes estimate   =   -9792.92331086 Ry
     estimated scf accuracy    <  190524.78294683 Ry

     iteration # 42     ecut=    70.00 Ry     beta= 0.50
     CG style diagonalization
     c_bands:  1 eigenvalues not converged
     c_bands:  1 eigenvalues not converged
     c_bands:  2 eigenvalues not converged
     c_bands:  1 eigenvalues not converged
     c_bands:  1 eigenvalues not converged
     c_bands:  3 eigenvalues not converged
     ethr =  1.00E-02,  avg # of iterations = 29.3

     negative rho (up, down):  7.577E+01 0.000E+00

     total cpu time spent up to now is     2951.0 secs

     total energy              =   -9130.70875660 Ry
     Harris-Foulkes estimate   =   -8458.99761539 Ry
     estimated scf accuracy    <  102830.38277918 Ry

     iteration # 43     ecut=    70.00 Ry     beta= 0.50
     CG style diagonalization
     c_bands:  1 eigenvalues not converged
     c_bands:  5 eigenvalues not converged
     c_bands:  4 eigenvalues not converged
     c_bands:  5 eigenvalues not converged
     c_bands:  2 eigenvalues not converged
     c_bands:  4 eigenvalues not converged
     c_bands:  4 eigenvalues not converged
     c_bands:  4 eigenvalues not converged
     ethr =  1.00E-02,  avg # of iterations = 50.1

     negative rho (up, down):  8.061E+01 0.000E+00

     total cpu time spent up to now is     3384.5 secs

     total energy              =   -9967.70873696 Ry
     Harris-Foulkes estimate   =  -10615.26512423 Ry
     estimated scf accuracy    <  193635.41192847 Ry

     iteration # 44     ecut=    70.00 Ry     beta= 0.50
     CG style diagonalization
     c_bands:  4 eigenvalues not converged
     c_bands:  2 eigenvalues not converged
     c_bands:  1 eigenvalues not converged
     c_bands:  1 eigenvalues not converged
     c_bands:  1 eigenvalues not converged
     ethr =  1.00E-02,  avg # of iterations = 51.9

     negative rho (up, down):  5.951E+01 0.000E+00

     total cpu time spent up to now is     3771.5 secs

     total energy              =   -9793.31519602 Ry
     Harris-Foulkes estimate   =  -11197.58170478 Ry
     estimated scf accuracy    <  271381.02462855 Ry

     iteration # 45     ecut=    70.00 Ry     beta= 0.50
     CG style diagonalization
     c_bands:  5 eigenvalues not converged
     c_bands:  4 eigenvalues not converged
     c_bands:  5 eigenvalues not converged
     c_bands:  5 eigenvalues not converged
     c_bands:  1 eigenvalues not converged
     c_bands:  2 eigenvalues not converged
     ethr =  1.00E-02,  avg # of iterations = 26.2

     negative rho (up, down):  6.730E+01 0.000E+00

     total cpu time spent up to now is     3968.3 secs

     total energy              =  -10132.89562885 Ry
     Harris-Foulkes estimate   =  -10414.56389612 Ry
     estimated scf accuracy    <  140523.73102923 Ry

     iteration # 46     ecut=    70.00 Ry     beta= 0.50
     CG style diagonalization
     c_bands:  3 eigenvalues not converged
     c_bands:  1 eigenvalues not converged
     c_bands:  2 eigenvalues not converged
     c_bands:  3 eigenvalues not converged
     c_bands:  1 eigenvalues not converged
     c_bands:  4 eigenvalues not converged
     c_bands:  1 eigenvalues not converged
     c_bands:  2 eigenvalues not converged
     ethr =  1.00E-02,  avg # of iterations = 20.4

     negative rho (up, down):  1.495E+02 0.000E+00

     total cpu time spent up to now is     4121.5 secs

     total energy              =  -11068.98978073 Ry
     Harris-Foulkes estimate   =  -10404.87978578 Ry
     estimated scf accuracy    <  212398.67519105 Ry

     iteration # 47     ecut=    70.00 Ry     beta= 0.50
     CG style diagonalization
     c_bands:  1 eigenvalues not converged
     c_bands:  1 eigenvalues not converged
     c_bands:  2 eigenvalues not converged
     c_bands:  3 eigenvalues not converged
     c_bands:  2 eigenvalues not converged
     c_bands:  5 eigenvalues not converged
     c_bands:  3 eigenvalues not converged
     c_bands:  4 eigenvalues not converged
     ethr =  1.00E-02,  avg # of iterations = 57.0

     negative rho (up, down):  1.898E+02 0.000E+00

     total cpu time spent up to now is     4550.4 secs

     total energy              =  -11798.93021949 Ry
     Harris-Foulkes estimate   =  -12499.53561065 Ry
     estimated scf accuracy    <  195889.72276650 Ry

     iteration # 48     ecut=    70.00 Ry     beta= 0.50
     CG style diagonalization
     c_bands:  3 eigenvalues not converged
     c_bands:  2 eigenvalues not converged
     c_bands:  5 eigenvalues not converged
     c_bands:  2 eigenvalues not converged
     c_bands:  1 eigenvalues not converged
     c_bands:  2 eigenvalues not converged
     ethr =  1.00E-02,  avg # of iterations = 61.0

     negative rho (up, down):  2.233E+02 0.000E+00

     total cpu time spent up to now is     5010.6 secs

     total energy              =  -11817.41138570 Ry
     Harris-Foulkes estimate   =  -13325.25536722 Ry
     estimated scf accuracy    <  181914.41600734 Ry

     iteration # 49     ecut=    70.00 Ry     beta= 0.50
     CG style diagonalization
     c_bands:  3 eigenvalues not converged
     c_bands:  1 eigenvalues not converged
     c_bands:  5 eigenvalues not converged
     c_bands:  1 eigenvalues not converged
     c_bands:  5 eigenvalues not converged
     ethr =  1.00E-02,  avg # of iterations = 63.3

     negative rho (up, down):  2.323E+02 0.000E+00

     total cpu time spent up to now is     5488.8 secs

     total energy              =  -12643.38415725 Ry
     Harris-Foulkes estimate   =  -14418.99288861 Ry
     estimated scf accuracy    <  277004.46212594 Ry

     iteration # 50     ecut=    70.00 Ry     beta= 0.50
     CG style diagonalization
     c_bands:  3 eigenvalues not converged
     c_bands:  4 eigenvalues not converged
     c_bands:  2 eigenvalues not converged
     c_bands:  3 eigenvalues not converged
     c_bands:  4 eigenvalues not converged
     c_bands:  4 eigenvalues not converged
     c_bands:  2 eigenvalues not converged
     c_bands:  2 eigenvalues not converged
     ethr =  1.00E-02,  avg # of iterations = 42.1

     negative rho (up, down):  3.251E+02 0.000E+00

     total cpu time spent up to now is     5807.0 secs

     total energy              =  -15774.41569839 Ry
     Harris-Foulkes estimate   =  -15052.33225288 Ry
     estimated scf accuracy    <  238038.76220607 Ry

     iteration # 51     ecut=    70.00 Ry     beta= 0.50
     CG style diagonalization
     c_bands:  1 eigenvalues not converged
     c_bands:  2 eigenvalues not converged
     c_bands:  4 eigenvalues not converged
     c_bands:  4 eigenvalues not converged
     c_bands:  1 eigenvalues not converged
     c_bands:  5 eigenvalues not converged
     c_bands:  4 eigenvalues not converged
     c_bands:  4 eigenvalues not converged
     ethr =  1.00E-02,  avg # of iterations = 49.5

     negative rho (up, down):  3.979E+02 0.000E+00

     total cpu time spent up to now is     6178.3 secs

     total energy              =  -15440.97496420 Ry
     Harris-Foulkes estimate   =  -17081.39373411 Ry
     estimated scf accuracy    <  189364.12559143 Ry

     iteration # 52     ecut=    70.00 Ry     beta= 0.50
     CG style diagonalization
     c_bands:  2 eigenvalues not converged
     c_bands:  3 eigenvalues not converged
     c_bands:  4 eigenvalues not converged
     c_bands:  5 eigenvalues not converged
     c_bands:  3 eigenvalues not converged
     c_bands:  1 eigenvalues not converged
     c_bands:  1 eigenvalues not converged
     c_bands:  2 eigenvalues not converged
     ethr =  1.00E-02,  avg # of iterations = 49.5

     negative rho (up, down):  9.288E+02 0.000E+00

     total cpu time spent up to now is     6551.2 secs

     total energy              =  -13605.51252426 Ry
     Harris-Foulkes estimate   =  -16320.93508626 Ry
     estimated scf accuracy    <  112300.20259084 Ry

     iteration # 53     ecut=    70.00 Ry     beta= 0.50
     CG style diagonalization
     c_bands:  1 eigenvalues not converged
     c_bands:  4 eigenvalues not converged
     c_bands:  3 eigenvalues not converged
     c_bands:  3 eigenvalues not converged
     c_bands:  4 eigenvalues not converged
     c_bands:  2 eigenvalues not converged
     c_bands:  3 eigenvalues not converged
     c_bands:  4 eigenvalues not converged
     ethr =  1.00E-02,  avg # of iterations = 75.4

     negative rho (up, down):  9.058E+02 0.000E+00

     total cpu time spent up to now is     7117.1 secs

     total energy              =  -17363.71586391 Ry
     Harris-Foulkes estimate   =  -18335.57665129 Ry
     estimated scf accuracy    <  100426.84198759 Ry

     iteration # 54     ecut=    70.00 Ry     beta= 0.50
     CG style diagonalization
     c_bands:  4 eigenvalues not converged
     c_bands:  4 eigenvalues not converged
     c_bands:  2 eigenvalues not converged
     c_bands:  2 eigenvalues not converged
     c_bands:  2 eigenvalues not converged
     c_bands:  3 eigenvalues not converged
     c_bands:  3 eigenvalues not converged
     c_bands:  4 eigenvalues not converged
     ethr =  1.00E-02,  avg # of iterations =  8.5

     negative rho (up, down):  7.674E+02 0.000E+00

     total cpu time spent up to now is     7175.8 secs

     total energy              =  -14829.49697975 Ry
     Harris-Foulkes estimate   =  -17603.77900335 Ry
     estimated scf accuracy    <   77146.57072578 Ry

     iteration # 55     ecut=    70.00 Ry     beta= 0.50
     CG style diagonalization
     c_bands:  4 eigenvalues not converged
     c_bands:  2 eigenvalues not converged
     c_bands:  2 eigenvalues not converged
     c_bands:  3 eigenvalues not converged
     c_bands:  2 eigenvalues not converged
     ethr =  1.00E-02,  avg # of iterations = 58.5

     negative rho (up, down):  7.934E+02 0.000E+00

     total cpu time spent up to now is     7634.2 secs

     total energy              =  -16961.77588536 Ry
     Harris-Foulkes estimate   =  -17005.16380607 Ry
     estimated scf accuracy    <   72721.24801057 Ry

     iteration # 56     ecut=    70.00 Ry     beta= 0.50
     CG style diagonalization
     c_bands:  4 eigenvalues not converged
     c_bands:  3 eigenvalues not converged
     c_bands:  1 eigenvalues not converged
     c_bands:  4 eigenvalues not converged
     c_bands:  4 eigenvalues not converged
     c_bands:  3 eigenvalues not converged
     ethr =  1.00E-02,  avg # of iterations = 18.4

     negative rho (up, down):  7.819E+02 0.000E+00

     total cpu time spent up to now is     7767.1 secs

     total energy              =  -16661.60317032 Ry
     Harris-Foulkes estimate   =  -17085.01491755 Ry
     estimated scf accuracy    <   48409.63779077 Ry

     iteration # 57     ecut=    70.00 Ry     beta= 0.50
     CG style diagonalization
     c_bands:  5 eigenvalues not converged
     c_bands:  5 eigenvalues not converged
     c_bands:  4 eigenvalues not converged
     c_bands:  4 eigenvalues not converged
     c_bands:  1 eigenvalues not converged
     c_bands:  3 eigenvalues not converged
     c_bands:  2 eigenvalues not converged
     ethr =  1.00E-02,  avg # of iterations = 28.6

     negative rho (up, down):  7.798E+02 0.000E+00

     total cpu time spent up to now is     7976.5 secs

     total energy              =  -16993.75152496 Ry
     Harris-Foulkes estimate   =  -17054.24183351 Ry
     estimated scf accuracy    <  135796.82334454 Ry

     iteration # 58     ecut=    70.00 Ry     beta= 0.50
     CG style diagonalization
     c_bands:  1 eigenvalues not converged
     c_bands:  1 eigenvalues not converged
     ethr =  1.00E-02,  avg # of iterations =  3.7

     negative rho (up, down):  7.928E+02 0.000E+00

     total cpu time spent up to now is     8000.7 secs

     total energy              =  -15933.72640669 Ry
     Harris-Foulkes estimate   =  -16999.45726448 Ry
     estimated scf accuracy    <  128523.30085513 Ry

     iteration # 59     ecut=    70.00 Ry     beta= 0.50
     CG style diagonalization
     c_bands:  4 eigenvalues not converged
     c_bands:  5 eigenvalues not converged
     c_bands:  1 eigenvalues not converged
     c_bands:  2 eigenvalues not converged
     c_bands:  3 eigenvalues not converged
     c_bands:  3 eigenvalues not converged
     c_bands:  4 eigenvalues not converged
     c_bands:  1 eigenvalues not converged
     ethr =  1.00E-02,  avg # of iterations = 36.6

     negative rho (up, down):  7.810E+02 0.000E+00

     total cpu time spent up to now is     8271.2 secs

     total energy              =  -16351.51548085 Ry
     Harris-Foulkes estimate   =  -16926.50944611 Ry
     estimated scf accuracy    <   38277.41872198 Ry

     iteration # 60     ecut=    70.00 Ry     beta= 0.50
     CG style diagonalization
     c_bands:  2 eigenvalues not converged
     c_bands:  5 eigenvalues not converged
     c_bands:  2 eigenvalues not converged
     c_bands:  2 eigenvalues not converged
     c_bands:  4 eigenvalues not converged
     c_bands:  5 eigenvalues not converged
     ethr =  1.00E-02,  avg # of iterations = 18.2

     negative rho (up, down):  7.822E+02 0.000E+00

     total cpu time spent up to now is     8401.8 secs

     total energy              =  -16601.34685927 Ry
     Harris-Foulkes estimate   =  -17093.28856715 Ry
     estimated scf accuracy    <  148127.38172390 Ry

     iteration # 61     ecut=    70.00 Ry     beta= 0.50
     CG style diagonalization
     c_bands:  2 eigenvalues not converged
     c_bands:  4 eigenvalues not converged
     c_bands:  2 eigenvalues not converged
     c_bands:  1 eigenvalues not converged
     c_bands:  5 eigenvalues not converged
     c_bands:  2 eigenvalues not converged
     c_bands:  4 eigenvalues not converged
     c_bands:  3 eigenvalues not converged
     ethr =  1.00E-02,  avg # of iterations = 24.3

     negative rho (up, down):  8.162E+02 0.000E+00

     total cpu time spent up to now is     8578.8 secs

     total energy              =  -16996.34588330 Ry
     Harris-Foulkes estimate   =  -16824.52100866 Ry
     estimated scf accuracy    <  152290.75452723 Ry

     iteration # 62     ecut=    70.00 Ry     beta= 0.50
     CG style diagonalization
     c_bands:  1 eigenvalues not converged
     c_bands:  2 eigenvalues not converged
     c_bands:  4 eigenvalues not converged
     c_bands:  1 eigenvalues not converged
     c_bands:  4 eigenvalues not converged
     c_bands:  2 eigenvalues not converged
     c_bands:  5 eigenvalues not converged
     c_bands:  5 eigenvalues not converged
     ethr =  1.00E-02,  avg # of iterations = 15.7

     negative rho (up, down):  8.272E+02 0.000E+00

     total cpu time spent up to now is     8690.1 secs

     total energy              =  -13513.31291954 Ry
     Harris-Foulkes estimate   =  -17316.68738419 Ry
     estimated scf accuracy    <  126089.83387835 Ry

     iteration # 63     ecut=    70.00 Ry     beta= 0.50
     CG style diagonalization
     c_bands:  2 eigenvalues not converged
     c_bands:  5 eigenvalues not converged
     c_bands:  2 eigenvalues not converged
     c_bands:  3 eigenvalues not converged
     ethr =  1.00E-02,  avg # of iterations = 56.2

     negative rho (up, down):  8.620E+02 0.000E+00

     total cpu time spent up to now is     9107.4 secs

     total energy              =  -15997.50387785 Ry
     Harris-Foulkes estimate   =  -18424.10140721 Ry
     estimated scf accuracy    <   96603.68099716 Ry

     iteration # 64     ecut=    70.00 Ry     beta= 0.50
     CG style diagonalization
     c_bands:  2 eigenvalues not converged
     c_bands:  3 eigenvalues not converged
     c_bands:  5 eigenvalues not converged
     c_bands:  4 eigenvalues not converged
     c_bands:  1 eigenvalues not converged
     c_bands:  2 eigenvalues not converged
     c_bands:  2 eigenvalues not converged
     c_bands:  4 eigenvalues not converged
     ethr =  1.00E-02,  avg # of iterations = 52.1

     negative rho (up, down):  8.495E+02 0.000E+00

     total cpu time spent up to now is     9491.7 secs

     total energy              =  -17514.19981042 Ry
     Harris-Foulkes estimate   =  -17396.21773295 Ry
     estimated scf accuracy    <   23993.30779509 Ry

     iteration # 65     ecut=    70.00 Ry     beta= 0.50
     CG style diagonalization
     c_bands:  2 eigenvalues not converged
     c_bands:  3 eigenvalues not converged
     c_bands:  1 eigenvalues not converged
     c_bands:  2 eigenvalues not converged
     c_bands:  1 eigenvalues not converged
     c_bands:  1 eigenvalues not converged
     c_bands:  1 eigenvalues not converged
     ethr =  1.00E-02,  avg # of iterations = 13.3

     negative rho (up, down):  1.079E+03 0.000E+00

     total cpu time spent up to now is     9588.1 secs

     total energy              =     957.63860199 Ry
     Harris-Foulkes estimate   =  -17734.39697749 Ry
     estimated scf accuracy    <   49287.20734219 Ry

     iteration # 66     ecut=    70.00 Ry     beta= 0.50
     CG style diagonalization
     c_bands:  4 eigenvalues not converged
     c_bands:  2 eigenvalues not converged
     c_bands:  3 eigenvalues not converged
     c_bands:  5 eigenvalues not converged
     c_bands:  5 eigenvalues not converged
     c_bands:  3 eigenvalues not converged
     c_bands:  3 eigenvalues not converged
     c_bands:  2 eigenvalues not converged
     ethr =  1.00E-02,  avg # of iterations = 59.8

     negative rho (up, down):  1.141E+03 0.000E+00

     total cpu time spent up to now is    10037.5 secs

     total energy              =  -14574.77237502 Ry
     Harris-Foulkes estimate   =  -18324.88968403 Ry
     estimated scf accuracy    <   47548.84825424 Ry

     iteration # 67     ecut=    70.00 Ry     beta= 0.50
     CG style diagonalization
     c_bands:  2 eigenvalues not converged
     c_bands:  1 eigenvalues not converged
     c_bands:  4 eigenvalues not converged
     c_bands:  1 eigenvalues not converged
     c_bands:  2 eigenvalues not converged
     c_bands:  3 eigenvalues not converged
     c_bands:  2 eigenvalues not converged
     c_bands:  3 eigenvalues not converged
     ethr =  1.00E-02,  avg # of iterations = 33.7

     negative rho (up, down):  9.855E+02 0.000E+00

     total cpu time spent up to now is    10288.5 secs

     total energy              =  -19298.66377340 Ry
     Harris-Foulkes estimate   =  -15385.98900434 Ry
     estimated scf accuracy    <   34964.24462359 Ry

     iteration # 68     ecut=    70.00 Ry     beta= 0.50
     CG style diagonalization
     c_bands:  2 eigenvalues not converged
     c_bands:  2 eigenvalues not converged
     c_bands:  4 eigenvalues not converged
     c_bands:  4 eigenvalues not converged
     c_bands:  3 eigenvalues not converged
     c_bands:  3 eigenvalues not converged
     c_bands:  3 eigenvalues not converged
     c_bands:  3 eigenvalues not converged
     ethr =  1.00E-02,  avg # of iterations = 16.7

     negative rho (up, down):  8.933E+02 0.000E+00

     total cpu time spent up to now is    10411.0 secs

     total energy              =  -17736.35697247 Ry
     Harris-Foulkes estimate   =  -19443.51306714 Ry
     estimated scf accuracy    <   44166.67837606 Ry

     iteration # 69     ecut=    70.00 Ry     beta= 0.50
     CG style diagonalization
     c_bands:  1 eigenvalues not converged
     c_bands:  2 eigenvalues not converged
     c_bands:  1 eigenvalues not converged
     ethr =  1.00E-02,  avg # of iterations = 26.2

     negative rho (up, down):  9.807E+02 0.000E+00

     total cpu time spent up to now is    10606.2 secs

     total energy              =  -18061.74634826 Ry
     Harris-Foulkes estimate   =  -18881.75956139 Ry
     estimated scf accuracy    <  109823.10352318 Ry

     iteration # 70     ecut=    70.00 Ry     beta= 0.50
     CG style diagonalization
     c_bands:  5 eigenvalues not converged
     c_bands:  1 eigenvalues not converged
     c_bands:  1 eigenvalues not converged
     c_bands:  2 eigenvalues not converged
     c_bands:  1 eigenvalues not converged
     c_bands:  3 eigenvalues not converged
     c_bands:  3 eigenvalues not converged
     c_bands:  3 eigenvalues not converged
     ethr =  1.00E-02,  avg # of iterations = 41.0

     negative rho (up, down):  9.253E+02 0.000E+00

     total cpu time spent up to now is    10910.8 secs

     total energy              =  -17924.83778742 Ry
     Harris-Foulkes estimate   =  -19712.83162975 Ry
     estimated scf accuracy    <   60742.68297899 Ry

     iteration # 71     ecut=    70.00 Ry     beta= 0.50
     CG style diagonalization
     c_bands:  5 eigenvalues not converged
     c_bands:  4 eigenvalues not converged
     c_bands:  5 eigenvalues not converged
     c_bands:  2 eigenvalues not converged
     c_bands:  4 eigenvalues not converged
     c_bands:  3 eigenvalues not converged
     c_bands:  1 eigenvalues not converged
     c_bands:  4 eigenvalues not converged
     ethr =  1.00E-02,  avg # of iterations = 47.4

     negative rho (up, down):  9.038E+02 0.000E+00

     total cpu time spent up to now is    11264.6 secs

     total energy              =  -17973.96011187 Ry
     Harris-Foulkes estimate   =  -20158.12745275 Ry
     estimated scf accuracy    <  137749.37392191 Ry

     iteration # 72     ecut=    70.00 Ry     beta= 0.50
     CG style diagonalization
     c_bands:  5 eigenvalues not converged
     c_bands:  2 eigenvalues not converged
     c_bands:  2 eigenvalues not converged
     c_bands:  2 eigenvalues not converged
     c_bands:  4 eigenvalues not converged
     c_bands:  3 eigenvalues not converged
     c_bands:  5 eigenvalues not converged
     c_bands:  2 eigenvalues not converged
     ethr =  1.00E-02,  avg # of iterations = 17.8

     negative rho (up, down):  1.051E+03 0.000E+00

     total cpu time spent up to now is    11397.7 secs

     total energy              =  -17476.98437355 Ry
     Harris-Foulkes estimate   =  -18283.41350543 Ry
     estimated scf accuracy    <   85694.22862332 Ry

     iteration # 73     ecut=    70.00 Ry     beta= 0.50
     CG style diagonalization
     c_bands:  1 eigenvalues not converged
     c_bands:  5 eigenvalues not converged
     c_bands:  5 eigenvalues not converged
     c_bands:  3 eigenvalues not converged
     c_bands:  3 eigenvalues not converged
     c_bands:  2 eigenvalues not converged
     c_bands:  3 eigenvalues not converged
     c_bands:  5 eigenvalues not converged
     ethr =  1.00E-02,  avg # of iterations = 51.2

     negative rho (up, down):  1.125E+03 0.000E+00

     total cpu time spent up to now is    11779.1 secs

     total energy              =  -21000.55428878 Ry
     Harris-Foulkes estimate   =  -20447.43705780 Ry
     estimated scf accuracy    <   45831.30986420 Ry

     iteration # 74     ecut=    70.00 Ry     beta= 0.50
     CG style diagonalization
     c_bands:  4 eigenvalues not converged
     c_bands:  4 eigenvalues not converged
     c_bands:  5 eigenvalues not converged
     c_bands:  2 eigenvalues not converged
     c_bands:  5 eigenvalues not converged
     c_bands:  5 eigenvalues not converged
     c_bands:  4 eigenvalues not converged
     c_bands:  3 eigenvalues not converged
     ethr =  1.00E-02,  avg # of iterations = 45.8

     negative rho (up, down):  9.792E+02 0.000E+00

     total cpu time spent up to now is    12119.4 secs

     total energy              =  -17561.39147720 Ry
     Harris-Foulkes estimate   =  -21836.24917730 Ry
     estimated scf accuracy    <   42909.50261574 Ry

     iteration # 75     ecut=    70.00 Ry     beta= 0.50
     CG style diagonalization
     c_bands:  3 eigenvalues not converged
     c_bands:  1 eigenvalues not converged
     c_bands:  3 eigenvalues not converged
     c_bands:  1 eigenvalues not converged
     c_bands:  3 eigenvalues not converged
     c_bands:  4 eigenvalues not converged
     c_bands:  3 eigenvalues not converged
     ethr =  1.00E-02,  avg # of iterations = 46.9

     negative rho (up, down):  9.413E+02 0.000E+00

     total cpu time spent up to now is    12470.2 secs

     total energy              =  -17767.59534612 Ry
     Harris-Foulkes estimate   =  -19215.50995935 Ry
     estimated scf accuracy    <  132464.86088575 Ry

     iteration # 76     ecut=    70.00 Ry     beta= 0.50
     CG style diagonalization
     c_bands:  2 eigenvalues not converged
     c_bands:  5 eigenvalues not converged
     c_bands:  1 eigenvalues not converged
     c_bands:  4 eigenvalues not converged
     c_bands:  1 eigenvalues not converged
     c_bands:  4 eigenvalues not converged
     c_bands:  4 eigenvalues not converged
     ethr =  1.00E-02,  avg # of iterations = 12.7

     negative rho (up, down):  9.943E+02 0.000E+00

     total cpu time spent up to now is    12561.8 secs

     total energy              =  -17465.48236072 Ry
     Harris-Foulkes estimate   =  -18120.22289536 Ry
     estimated scf accuracy    <   62419.15196891 Ry

     iteration # 77     ecut=    70.00 Ry     beta= 0.50
     CG style diagonalization
     c_bands:  3 eigenvalues not converged
     c_bands:  1 eigenvalues not converged
     c_bands:  3 eigenvalues not converged
     c_bands:  5 eigenvalues not converged
     c_bands:  2 eigenvalues not converged
     c_bands:  3 eigenvalues not converged
     c_bands:  2 eigenvalues not converged
     c_bands:  4 eigenvalues not converged
     ethr =  1.00E-02,  avg # of iterations = 62.1

     negative rho (up, down):  1.161E+03 0.000E+00

     total cpu time spent up to now is    13022.3 secs

     total energy              =   -8009.05701293 Ry
     Harris-Foulkes estimate   =  -18814.05109906 Ry
     estimated scf accuracy    <   57062.29867294 Ry

     iteration # 78     ecut=    70.00 Ry     beta= 0.50
     CG style diagonalization
     c_bands:  1 eigenvalues not converged
     c_bands:  3 eigenvalues not converged
     c_bands:  3 eigenvalues not converged
     c_bands:  5 eigenvalues not converged
     c_bands:  2 eigenvalues not converged
     c_bands:  5 eigenvalues not converged
     c_bands:  4 eigenvalues not converged
     c_bands:  4 eigenvalues not converged
     ethr =  1.00E-02,  avg # of iterations = 70.2

     negative rho (up, down):  1.312E+03 0.000E+00

     total cpu time spent up to now is    13545.4 secs

     total energy              =   -9582.77842499 Ry
     Harris-Foulkes estimate   =  -12135.93391030 Ry
     estimated scf accuracy    <   78532.83682021 Ry

     iteration # 79     ecut=    70.00 Ry     beta= 0.50
     CG style diagonalization
     c_bands:  4 eigenvalues not converged
     c_bands: 11 eigenvalues not converged
     c_bands: 13 eigenvalues not converged
     c_bands: 16 eigenvalues not converged
     c_bands: 11 eigenvalues not converged
     c_bands:  9 eigenvalues not converged
     c_bands: 11 eigenvalues not converged
     c_bands:  8 eigenvalues not converged
     ethr =  1.00E-02,  avg # of iterations = 72.0

     negative rho (up, down):  1.101E+03 0.000E+00

     total cpu time spent up to now is    14085.1 secs

     total energy              =  -18801.70838766 Ry
     Harris-Foulkes estimate   =  -11627.57558650 Ry
     estimated scf accuracy    <  113762.21680018 Ry

     iteration # 80     ecut=    70.00 Ry     beta= 0.50
     CG style diagonalization
     c_bands:  3 eigenvalues not converged
     c_bands:  3 eigenvalues not converged
     c_bands:  4 eigenvalues not converged
     c_bands:  3 eigenvalues not converged
     c_bands:  3 eigenvalues not converged
     c_bands:  4 eigenvalues not converged
     c_bands:  5 eigenvalues not converged
     c_bands:  1 eigenvalues not converged
     ethr =  1.00E-02,  avg # of iterations = 32.8

     negative rho (up, down):  1.087E+03 0.000E+00

     total cpu time spent up to now is    14328.6 secs

     total energy              =  -21090.93643617 Ry
     Harris-Foulkes estimate   =  -20255.90831327 Ry
     estimated scf accuracy    <   34940.38336263 Ry

     iteration # 81     ecut=    70.00 Ry     beta= 0.50
     CG style diagonalization
     c_bands:  1 eigenvalues not converged
     c_bands:  3 eigenvalues not converged
     c_bands:  3 eigenvalues not converged
     c_bands:  4 eigenvalues not converged
     c_bands:  2 eigenvalues not converged
     c_bands:  3 eigenvalues not converged
     c_bands:  3 eigenvalues not converged
     ethr =  1.00E-02,  avg # of iterations = 28.2

     negative rho (up, down):  1.112E+03 0.000E+00

     total cpu time spent up to now is    14535.6 secs

     total energy              =  -22072.88723894 Ry
     Harris-Foulkes estimate   =  -21677.24438046 Ry
     estimated scf accuracy    <  133112.47298098 Ry

     iteration # 82     ecut=    70.00 Ry     beta= 0.50
     CG style diagonalization
     c_bands:  2 eigenvalues not converged
     c_bands:  3 eigenvalues not converged
     c_bands:  4 eigenvalues not converged
     c_bands:  4 eigenvalues not converged
     c_bands:  4 eigenvalues not converged
     c_bands:  1 eigenvalues not converged
     c_bands:  5 eigenvalues not converged
     ethr =  1.00E-02,  avg # of iterations = 21.5

     negative rho (up, down):  1.095E+03 0.000E+00

     total cpu time spent up to now is    14691.6 secs

     total energy              =  -18185.72628494 Ry
     Harris-Foulkes estimate   =  -22317.82751452 Ry
     estimated scf accuracy    <  194579.41188067 Ry

     iteration # 83     ecut=    70.00 Ry     beta= 0.50
     CG style diagonalization
     c_bands:  4 eigenvalues not converged
     c_bands:  3 eigenvalues not converged
     c_bands:  1 eigenvalues not converged
     c_bands:  4 eigenvalues not converged
     c_bands:  4 eigenvalues not converged
     c_bands:  4 eigenvalues not converged
     c_bands:  3 eigenvalues not converged
     ethr =  1.00E-02,  avg # of iterations = 58.0

     negative rho (up, down):  1.085E+03 0.000E+00

     total cpu time spent up to now is    15123.6 secs

     total energy              =  -25826.44162672 Ry
     Harris-Foulkes estimate   =  -24870.15113213 Ry
     estimated scf accuracy    <  145584.47082383 Ry

     iteration # 84     ecut=    70.00 Ry     beta= 0.50
     CG style diagonalization
     c_bands:  4 eigenvalues not converged
     c_bands:  4 eigenvalues not converged
     c_bands:  4 eigenvalues not converged
     c_bands:  5 eigenvalues not converged
     c_bands:  1 eigenvalues not converged
     c_bands:  2 eigenvalues not converged
     c_bands:  4 eigenvalues not converged
     ethr =  1.00E-02,  avg # of iterations = 27.1

     negative rho (up, down):  1.234E+03 0.000E+00

     total cpu time spent up to now is    15322.5 secs

     total energy              =  -25407.10065517 Ry
     Harris-Foulkes estimate   =  -26194.06851272 Ry
     estimated scf accuracy    <  152803.90580758 Ry

     iteration # 85     ecut=    70.00 Ry     beta= 0.50
     CG style diagonalization
     c_bands:  2 eigenvalues not converged
     c_bands:  5 eigenvalues not converged
     c_bands:  5 eigenvalues not converged
     c_bands:  3 eigenvalues not converged
     c_bands:  3 eigenvalues not converged
     c_bands:  3 eigenvalues not converged
     c_bands:  1 eigenvalues not converged
     ethr =  1.00E-02,  avg # of iterations = 29.3

     negative rho (up, down):  1.328E+03 0.000E+00

     total cpu time spent up to now is    15539.2 secs

     total energy              =  -23669.50207578 Ry
     Harris-Foulkes estimate   =  -25999.04174736 Ry
     estimated scf accuracy    <  117725.70642842 Ry

     iteration # 86     ecut=    70.00 Ry     beta= 0.50
     CG style diagonalization
     c_bands:  2 eigenvalues not converged
     c_bands:  4 eigenvalues not converged
     c_bands:  2 eigenvalues not converged
     c_bands:  4 eigenvalues not converged
     c_bands:  2 eigenvalues not converged
     c_bands:  1 eigenvalues not converged
     c_bands:  2 eigenvalues not converged
     ethr =  1.00E-02,  avg # of iterations = 18.4

     negative rho (up, down):  1.273E+03 0.000E+00

     total cpu time spent up to now is    15672.6 secs

     total energy              =  -23820.99521332 Ry
     Harris-Foulkes estimate   =  -23889.39566685 Ry
     estimated scf accuracy    <  112402.46010102 Ry

     iteration # 87     ecut=    70.00 Ry     beta= 0.50
     CG style diagonalization
     c_bands:  2 eigenvalues not converged
     c_bands:  3 eigenvalues not converged
     c_bands:  4 eigenvalues not converged
     c_bands:  5 eigenvalues not converged
     c_bands:  3 eigenvalues not converged
     c_bands:  2 eigenvalues not converged
     c_bands:  5 eigenvalues not converged
     ethr =  1.00E-02,  avg # of iterations = 30.3

     negative rho (up, down):  1.280E+03 0.000E+00

     total cpu time spent up to now is    15891.9 secs

     total energy              =  -24466.33634698 Ry
     Harris-Foulkes estimate   =  -24156.23716070 Ry
     estimated scf accuracy    <  121038.52868688 Ry

     iteration # 88     ecut=    70.00 Ry     beta= 0.50
     CG style diagonalization
     c_bands:  1 eigenvalues not converged
     c_bands:  1 eigenvalues not converged
     c_bands:  2 eigenvalues not converged
     c_bands:  2 eigenvalues not converged
     c_bands:  1 eigenvalues not converged
     c_bands:  1 eigenvalues not converged
     c_bands:  2 eigenvalues not converged
     ethr =  1.00E-02,  avg # of iterations =  4.8

     negative rho (up, down):  1.235E+03 0.000E+00

     total cpu time spent up to now is    15925.4 secs

     total energy              =  -16622.25216507 Ry
     Harris-Foulkes estimate   =  -24489.60315855 Ry
     estimated scf accuracy    <  122331.72829392 Ry

     iteration # 89     ecut=    70.00 Ry     beta= 0.50
     CG style diagonalization
     c_bands:  3 eigenvalues not converged
     c_bands:  2 eigenvalues not converged
     c_bands:  2 eigenvalues not converged
     c_bands:  3 eigenvalues not converged
     c_bands:  3 eigenvalues not converged
     c_bands:  1 eigenvalues not converged
     c_bands:  3 eigenvalues not converged
     ethr =  1.00E-02,  avg # of iterations = 24.9

     negative rho (up, down):  1.228E+03 0.000E+00

     total cpu time spent up to now is    16107.1 secs

     total energy              =  -21071.01485933 Ry
     Harris-Foulkes estimate   =  -21944.95622298 Ry
     estimated scf accuracy    <   24744.62733759 Ry

     iteration # 90     ecut=    70.00 Ry     beta= 0.50
     CG style diagonalization
     c_bands:  4 eigenvalues not converged
     c_bands:  3 eigenvalues not converged
     c_bands:  5 eigenvalues not converged
     c_bands:  5 eigenvalues not converged
     c_bands:  3 eigenvalues not converged
     c_bands:  3 eigenvalues not converged
     c_bands:  4 eigenvalues not converged
     c_bands:  3 eigenvalues not converged
     ethr =  1.00E-02,  avg # of iterations = 26.6

     negative rho (up, down):  1.308E+03 0.000E+00

     total cpu time spent up to now is    16302.2 secs

     total energy              =  -21474.24245246 Ry
     Harris-Foulkes estimate   =  -21882.67116217 Ry
     estimated scf accuracy    <   43700.35048042 Ry

     iteration # 91     ecut=    70.00 Ry     beta= 0.50
     CG style diagonalization
     c_bands:  2 eigenvalues not converged
     c_bands:  4 eigenvalues not converged
     c_bands:  5 eigenvalues not converged
     c_bands:  2 eigenvalues not converged
     c_bands:  2 eigenvalues not converged
     c_bands:  1 eigenvalues not converged
     c_bands:  4 eigenvalues not converged
     ethr =  1.00E-02,  avg # of iterations = 17.7

     negative rho (up, down):  1.299E+03 0.000E+00

     total cpu time spent up to now is    16432.4 secs

     total energy              =  -21550.88003514 Ry
     Harris-Foulkes estimate   =  -22365.21491646 Ry
     estimated scf accuracy    <   48366.06723939 Ry

     iteration # 92     ecut=    70.00 Ry     beta= 0.50
     CG style diagonalization
     c_bands:  2 eigenvalues not converged
     c_bands:  4 eigenvalues not converged
     c_bands:  3 eigenvalues not converged
     c_bands:  5 eigenvalues not converged
     c_bands:  1 eigenvalues not converged
     c_bands:  5 eigenvalues not converged
     c_bands:  5 eigenvalues not converged
     c_bands:  2 eigenvalues not converged
     ethr =  1.00E-02,  avg # of iterations =  8.1

     negative rho (up, down):  1.295E+03 0.000E+00

     total cpu time spent up to now is    16490.3 secs

     total energy              =  -21819.14574486 Ry
     Harris-Foulkes estimate   =  -21919.53228012 Ry
     estimated scf accuracy    <   32244.61463478 Ry

     iteration # 93     ecut=    70.00 Ry     beta= 0.50
     CG style diagonalization
     c_bands:  1 eigenvalues not converged
     c_bands:  1 eigenvalues not converged
     c_bands:  3 eigenvalues not converged
     c_bands:  3 eigenvalues not converged
     c_bands:  3 eigenvalues not converged
     c_bands:  5 eigenvalues not converged
     c_bands:  2 eigenvalues not converged
     ethr =  1.00E-02,  avg # of iterations =  4.8

     negative rho (up, down):  1.300E+03 0.000E+00

     total cpu time spent up to now is    16523.5 secs

     total energy              =  -21370.27098238 Ry
     Harris-Foulkes estimate   =  -21867.02387188 Ry
     estimated scf accuracy    <   24994.33872313 Ry

     iteration # 94     ecut=    70.00 Ry     beta= 0.50
     CG style diagonalization
     c_bands:  3 eigenvalues not converged
     c_bands:  4 eigenvalues not converged
     c_bands:  4 eigenvalues not converged
     c_bands:  2 eigenvalues not converged
     c_bands:  1 eigenvalues not converged
     c_bands:  4 eigenvalues not converged
     c_bands:  5 eigenvalues not converged
     c_bands:  4 eigenvalues not converged
     ethr =  1.00E-02,  avg # of iterations =  6.8

     negative rho (up, down):  1.294E+03 0.000E+00

     total cpu time spent up to now is    16571.4 secs

     total energy              =  -21699.70475569 Ry
     Harris-Foulkes estimate   =  -21741.33276313 Ry
     estimated scf accuracy    <    1458.03973657 Ry

     iteration # 95     ecut=    70.00 Ry     beta= 0.50
     CG style diagonalization
     c_bands:  2 eigenvalues not converged
     c_bands:  1 eigenvalues not converged
     c_bands:  2 eigenvalues not converged
     c_bands:  1 eigenvalues not converged
     c_bands:  5 eigenvalues not converged
     c_bands:  3 eigenvalues not converged
     c_bands:  5 eigenvalues not converged
     ethr =  1.00E-02,  avg # of iterations =  5.8

     negative rho (up, down):  1.289E+03 0.000E+00

     total cpu time spent up to now is    16611.6 secs

     total energy              =  -21698.40594918 Ry
     Harris-Foulkes estimate   =  -21738.98384484 Ry
     estimated scf accuracy    <     722.56052715 Ry

     iteration # 96     ecut=    70.00 Ry     beta= 0.50
     CG style diagonalization
     c_bands:  3 eigenvalues not converged
     c_bands:  2 eigenvalues not converged
     c_bands:  3 eigenvalues not converged
     c_bands:  1 eigenvalues not converged
     c_bands:  4 eigenvalues not converged
     c_bands:  4 eigenvalues not converged
     c_bands:  1 eigenvalues not converged
     c_bands:  5 eigenvalues not converged
     ethr =  1.00E-02,  avg # of iterations =  7.4

     negative rho (up, down):  1.288E+03 0.000E+00

     total cpu time spent up to now is    16663.4 secs

     total energy              =  -21812.90667049 Ry
     Harris-Foulkes estimate   =  -21792.80476671 Ry
     estimated scf accuracy    <    9760.79031747 Ry

     iteration # 97     ecut=    70.00 Ry     beta= 0.50
     CG style diagonalization
     c_bands:  1 eigenvalues not converged
     c_bands:  1 eigenvalues not converged
     c_bands:  1 eigenvalues not converged
     c_bands:  1 eigenvalues not converged
     c_bands:  4 eigenvalues not converged
     ethr =  1.00E-02,  avg # of iterations =  4.5

     negative rho (up, down):  1.293E+03 0.000E+00

     total cpu time spent up to now is    16694.1 secs

     total energy              =  -21575.91053938 Ry
     Harris-Foulkes estimate   =  -21838.15358674 Ry
     estimated scf accuracy    <   17014.72244228 Ry

     iteration # 98     ecut=    70.00 Ry     beta= 0.50
     CG style diagonalization
     c_bands:  3 eigenvalues not converged
     c_bands:  3 eigenvalues not converged
     c_bands:  2 eigenvalues not converged
     c_bands:  2 eigenvalues not converged
     c_bands:  2 eigenvalues not converged
     c_bands:  1 eigenvalues not converged
     c_bands:  4 eigenvalues not converged
     ethr =  1.00E-02,  avg # of iterations =  4.3

     negative rho (up, down):  1.297E+03 0.000E+00

     total cpu time spent up to now is    16724.7 secs

     total energy              =  -21742.82453666 Ry
     Harris-Foulkes estimate   =  -21750.20575977 Ry
     estimated scf accuracy    <      64.57837582 Ry

     iteration # 99     ecut=    70.00 Ry     beta= 0.50
     CG style diagonalization
     c_bands:  4 eigenvalues not converged
     c_bands:  2 eigenvalues not converged
     c_bands:  3 eigenvalues not converged
     c_bands:  2 eigenvalues not converged
     c_bands:  3 eigenvalues not converged
     c_bands:  3 eigenvalues not converged
     c_bands:  2 eigenvalues not converged
     c_bands:  3 eigenvalues not converged
     ethr =  1.00E-02,  avg # of iterations =  4.3

     negative rho (up, down):  1.291E+03 0.000E+00

     total cpu time spent up to now is    16753.5 secs

     total energy              =  -21715.14235004 Ry
     Harris-Foulkes estimate   =  -21814.08899796 Ry
     estimated scf accuracy    <    5765.56059259 Ry

     iteration #100     ecut=    70.00 Ry     beta= 0.50
     CG style diagonalization
     c_bands:  1 eigenvalues not converged
     c_bands:  5 eigenvalues not converged
     c_bands:  1 eigenvalues not converged
     c_bands:  1 eigenvalues not converged
     c_bands:  1 eigenvalues not converged
     c_bands:  1 eigenvalues not converged
     c_bands:  5 eigenvalues not converged
     ethr =  1.00E-02,  avg # of iterations =  4.4

     negative rho (up, down):  1.291E+03 0.000E+00

     total cpu time spent up to now is    16783.0 secs

     total energy              =  -21767.81204066 Ry
     Harris-Foulkes estimate   =  -21770.25383671 Ry
     estimated scf accuracy    <      48.87194497 Ry

     End of self-consistent calculation

     convergence NOT achieved after 100 iterations: stopping

     Writing output data file CsSnI3.save/
 
     init_run     :      3.05s CPU      3.57s WALL (       1 calls)
     electrons    :  16429.05s CPU  16775.31s WALL (       1 calls)

     Called by init_run:
     wfcinit      :      1.30s CPU      1.43s WALL (       1 calls)
     wfcinit:atom :      0.01s CPU      0.02s WALL (       8 calls)
     wfcinit:wfcr :      1.19s CPU      1.30s WALL (       8 calls)
     potinit      :      0.61s CPU      0.71s WALL (       1 calls)
     hinit0       :      0.74s CPU      0.87s WALL (       1 calls)

     Called by electrons:
     c_bands      :  16308.48s CPU  16641.27s WALL (     100 calls)
     sum_band     :     70.46s CPU     78.04s WALL (     100 calls)
     v_of_rho     :      1.73s CPU      1.99s WALL (     101 calls)
     v_h          :      0.15s CPU      0.16s WALL (     101 calls)
     v_xc         :      1.58s CPU      1.83s WALL (     101 calls)
     newd         :     21.85s CPU     25.99s WALL (     101 calls)
     PAW_pot      :     25.85s CPU     27.12s WALL (     101 calls)
     mix_rho      :      0.96s CPU      1.05s WALL (     100 calls)

     Called by c_bands:
     init_us_2    :      8.23s CPU      8.40s WALL (    1608 calls)
     ccgdiagg     :  16076.89s CPU  16404.10s WALL (    1919 calls)
     wfcrot       :    226.64s CPU    231.86s WALL (    1919 calls)

     Called by sum_band:
     sum_band:bec :      0.40s CPU      0.42s WALL (     800 calls)
     addusdens    :     24.53s CPU     31.04s WALL (     100 calls)

     Called by *cgdiagg:
     h_psi        :   7417.42s CPU   7559.62s WALL ( 1394986 calls)
     s_psi        :   5210.77s CPU   5286.52s WALL ( 2788053 calls)
     cdiaghg      :      9.09s CPU      9.73s WALL (    1919 calls)
     cdiaghg:chol :      0.55s CPU      0.58s WALL (    1919 calls)
     cdiaghg:inve :      0.31s CPU      0.32s WALL (    1919 calls)
     cdiaghg:para :      0.49s CPU      0.50s WALL (    3838 calls)

     Called by h_psi:
     h_psi:pot    :   7396.40s CPU   7540.28s WALL ( 1394986 calls)
     h_psi:calbec :   3095.81s CPU   3163.37s WALL ( 1394986 calls)
     vloc_psi     :   1495.83s CPU   1530.25s WALL ( 1394986 calls)
     add_vuspsi   :   2799.41s CPU   2837.39s WALL ( 1394986 calls)
     hs_1psi      :   9742.25s CPU   9922.09s WALL ( 1393067 calls)
     s_1psi       :   5434.87s CPU   5545.13s WALL ( 1393067 calls)

     General routines
     calbec       :   5797.81s CPU   5934.62s WALL ( 2788853 calls)
     fft          :      1.19s CPU      1.31s WALL (    1112 calls)
     ffts         :      0.12s CPU      0.12s WALL (     100 calls)
     fftw         :   1328.10s CPU   1359.61s WALL ( 3194534 calls)
     davcio       :      0.00s CPU      0.02s WALL (      26 calls)
 
     Parallel routines
     fft_scatt_xy :    132.14s CPU    135.31s WALL ( 3195746 calls)
     fft_scatt_yz :    735.72s CPU    754.04s WALL ( 3195746 calls)

     PAW routines
     PAW_pot      :     25.85s CPU     27.12s WALL (     101 calls)
     PAW_symme    :      0.08s CPU      0.16s WALL (     201 calls)
 
     PWSCF        :      4h33m CPU      4h39m WALL

 
   This run was terminated on:  23:11:13  12Jan2021            

=------------------------------------------------------------------------------=
   JOB DONE.
=------------------------------------------------------------------------------=
