
     Program PWSCF v.6.4.1 starts on 12Jan2021 at 18:31:31 

     This program is part of the open-source Quantum ESPRESSO suite
     for quantum simulation of materials; please cite
         "P. Giannozzi et al., J. Phys.:Condens. Matter 21 395502 (2009);
         "P. Giannozzi et al., J. Phys.:Condens. Matter 29 465901 (2017);
          URL http://www.quantum-espresso.org", 
     in publications or presentations arising from this work. More details at
     http://www.quantum-espresso.org/quote

     Parallel version (MPI & OpenMP), running on      48 processor cores
     Number of MPI processes:                48
     Threads/MPI process:                     1

     MPI processes distributed on     1 nodes
     R & G space division:  proc/nbgrp/npool/nimage =      48
     Waiting for input...
     Reading input from standard input

     Current dimensions of program PWSCF are:
     Max number of different atomic species (ntypx) = 10
     Max number of k-points (npk) =  40000
     Max angular momentum in pseudopotentials (lmaxx) =  3
               file Cs.pbe-spn-kjpaw_psl.1.0.0.UPF: wavefunction(s)  5S 6S renormalized
               file Sn.pbe-dn-kjpaw_psl.1.0.0.UPF: wavefunction(s)  5S 5P 4D renormalized
               file I.pbe-n-kjpaw_psl.1.0.0.UPF: wavefunction(s)  5S renormalized

     Subspace diagonalization in iterative solution of the eigenvalue problem:
     one sub-group per band group will be used
     scalapack distributed-memory algorithm (size of sub-group:  4*  4 procs)

     Message from routine setup:
     DEPRECATED: symmetry with ibrav=0, use correct ibrav instead
 
     Parallelization info
     --------------------
     sticks:   dense  smooth     PW     G-vecs:    dense   smooth      PW
     Min          73      73     20                 8325     8325    1202
     Max          74      74     21                 8340     8340    1209
     Sum        3545    3545    975               400005   400005   57839
 

     Title: 
     CsSnI3                                                                     


     bravais-lattice index     =            0
     lattice parameter (alat)  =       9.1317  a.u.
     unit-cell volume          =    6370.5385 (a.u.)^3
     number of atoms/cell      =           20
     number of atomic types    =            3
     number of electrons       =       176.00
     number of Kohn-Sham states=           88
     kinetic-energy cutoff     =      60.0000  Ry
     charge density cutoff     =     240.0000  Ry
     convergence threshold     =      1.0E-06
     mixing beta               =       0.5000
     number of iterations used =            8  plain     mixing
     Exchange-correlation      = SLA PW PBX PBC ( 1  4  3  4 0 0)
     nstep                     =           50


     celldm(1)=   9.131705  celldm(2)=   0.000000  celldm(3)=   0.000000
     celldm(4)=   0.000000  celldm(5)=   0.000000  celldm(6)=   0.000000

     crystal axes: (cart. coord. in units of alat)
               a(1) = (   1.000000   0.000000   0.000000 )  
               a(2) = (   0.000000   2.227728   0.000000 )  
               a(3) = (   0.000000   0.000000   3.755420 )  

     reciprocal axes: (cart. coord. in units 2 pi/alat)
               b(1) = (  1.000000  0.000000  0.000000 )  
               b(2) = (  0.000000  0.448888  0.000000 )  
               b(3) = (  0.000000  0.000000  0.266282 )  


     PseudoPot. # 1 for Cs read from file:
     ../../../pseudo/Cs.pbe-spn-kjpaw_psl.1.0.0.UPF
     MD5 check sum: b82c75cc2e1f4ff73b6412cffeb9c584
     Pseudo is Projector augmented-wave + core cor, Zval =  9.0
     Generated using "atomic" code by A. Dal Corso v.6.4.1
     Shape of augmentation charge: PSQ
     Using radial grid of 1251 points,  9 beta functions with: 
                l(1) =   0
                l(2) =   0
                l(3) =   0
                l(4) =   1
                l(5) =   1
                l(6) =   2
                l(7) =   2
                l(8) =   3
                l(9) =   3
     Q(r) pseudized with 0 coefficients 


     PseudoPot. # 2 for Sn read from file:
     ../../../pseudo/Sn.pbe-dn-kjpaw_psl.1.0.0.UPF
     MD5 check sum: 67f11dec737d427557dc41ea34975807
     Pseudo is Projector augmented-wave + core cor, Zval = 14.0
     Generated using "atomic" code by A. Dal Corso v.6.3
     Shape of augmentation charge: PSQ
     Using radial grid of 1243 points,  6 beta functions with: 
                l(1) =   0
                l(2) =   0
                l(3) =   1
                l(4) =   1
                l(5) =   2
                l(6) =   2
     Q(r) pseudized with 0 coefficients 


     PseudoPot. # 3 for I  read from file:
     ../../../pseudo/I.pbe-n-kjpaw_psl.1.0.0.UPF
     MD5 check sum: cd3d296c3308a581e1559a0c8a554cb5
     Pseudo is Projector augmented-wave + core cor, Zval =  7.0
     Generated using "atomic" code by A. Dal Corso v.6.3
     Shape of augmentation charge: PSQ
     Using radial grid of 1247 points,  6 beta functions with: 
                l(1) =   0
                l(2) =   0
                l(3) =   1
                l(4) =   1
                l(5) =   2
                l(6) =   2
     Q(r) pseudized with 0 coefficients 


     atomic species   valence    mass     pseudopotential
        Cs             9.00   132.90000     Cs( 1.00)
        Sn            14.00   118.70000     Sn( 1.00)
        I              7.00   126.90000     I ( 1.00)

      2 Sym. Ops. (no inversion) found ( 1 have fractional translation)


                                    s                        frac. trans.

      isym =  1     identity                                     

 cryst.   s( 1) = (     1          0          0      )
                  (     0          1          0      )
                  (     0          0          1      )

 cart.    s( 1) = (  1.0000000  0.0000000  0.0000000 )
                  (  0.0000000  1.0000000  0.0000000 )
                  (  0.0000000  0.0000000  1.0000000 )


      isym =  2     inv. 180 deg rotation - cart. axis [1,0,0]   

 cryst.   s( 2) = (    -1          0          0      )    f =(  0.5000000 )
                  (     0          1          0      )       (  0.0000000 )
                  (     0          0          1      )       (  0.0000000 )

 cart.    s( 2) = ( -1.0000000  0.0000000  0.0000000 )    f =(  0.5000000 )
                  (  0.0000000  1.0000000  0.0000000 )       (  0.0000000 )
                  (  0.0000000  0.0000000  1.0000000 )       (  0.0000000 )


   Cartesian axes

     site n.     atom                  positions (alat units)
         1           Cs  tau(   1) = (   0.2500000   0.0834770   0.6701820  )
         2           Cs  tau(   2) = (   0.7500000   0.9165230   0.3298180  )
         3           Cs  tau(   3) = (   0.2500000   0.5834770   0.8298180  )
         4           Cs  tau(   4) = (   0.7500000   0.4165230   0.1701820  )
         5           Sn  tau(   5) = (   0.2500000   0.3418600   0.4389780  )
         6           Sn  tau(   6) = (   0.7500000   0.6581400   0.5610220  )
         7           Sn  tau(   7) = (   0.2500000   0.8418600   0.0610220  )
         8           Sn  tau(   8) = (   0.7500000   0.1581400   0.9389780  )
         9           I   tau(   9) = (   0.7500000   0.0261000   0.1119070  )
        10           I   tau(  10) = (   0.2500000   0.9739000   0.8880930  )
        11           I   tau(  11) = (   0.7500000   0.5261000   0.3880930  )
        12           I   tau(  12) = (   0.2500000   0.4739000   0.6119070  )
        13           I   tau(  13) = (   0.7500000   0.2931740   0.7918740  )
        14           I   tau(  14) = (   0.2500000   0.7068260   0.2081260  )
        15           I   tau(  15) = (   0.7500000   0.7931740   0.7081260  )
        16           I   tau(  16) = (   0.2500000   0.2068260   0.2918740  )
        17           I   tau(  17) = (   0.7500000   0.1684960   0.4988740  )
        18           I   tau(  18) = (   0.2500000   0.8315040   0.5011260  )
        19           I   tau(  19) = (   0.7500000   0.6684960   0.0011260  )
        20           I   tau(  20) = (   0.2500000   0.3315040   0.9988740  )

   Crystallographic axes

     site n.     atom                  positions (cryst. coord.)
         1           Cs  tau(   1) = (  0.2500000  0.0374718  0.1784573  )
         2           Cs  tau(   2) = (  0.7500000  0.4114161  0.0878245  )
         3           Cs  tau(   3) = (  0.2500000  0.2619158  0.2209654  )
         4           Cs  tau(   4) = (  0.7500000  0.1869721  0.0453164  )
         5           Sn  tau(   5) = (  0.2500000  0.1534568  0.1168919  )
         6           Sn  tau(   6) = (  0.7500000  0.2954311  0.1493900  )
         7           Sn  tau(   7) = (  0.2500000  0.3779008  0.0162490  )
         8           Sn  tau(   8) = (  0.7500000  0.0709871  0.2500328  )
         9           I   tau(   9) = (  0.7500000  0.0117160  0.0297988  )
        10           I   tau(  10) = (  0.2500000  0.4371719  0.2364830  )
        11           I   tau(  11) = (  0.7500000  0.2361599  0.1033421  )
        12           I   tau(  12) = (  0.2500000  0.2127280  0.1629397  )
        13           I   tau(  13) = (  0.7500000  0.1316023  0.2108617  )
        14           I   tau(  14) = (  0.2500000  0.3172856  0.0554202  )
        15           I   tau(  15) = (  0.7500000  0.3560462  0.1885611  )
        16           I   tau(  16) = (  0.2500000  0.0928417  0.0777207  )
        17           I   tau(  17) = (  0.7500000  0.0756358  0.1328411  )
        18           I   tau(  18) = (  0.2500000  0.3732521  0.1334407  )
        19           I   tau(  19) = (  0.7500000  0.3000798  0.0002998  )
        20           I   tau(  20) = (  0.2500000  0.1488081  0.2659820  )

     number of k points=     8
                       cart. coord. in units 2pi/alat
        k(    1) = (   0.0000000   0.0000000   0.0000000), wk =   0.2500000
        k(    2) = (   0.0000000   0.0000000  -0.1331409), wk =   0.2500000
        k(    3) = (   0.0000000  -0.2244440   0.0000000), wk =   0.2500000
        k(    4) = (   0.0000000  -0.2244440  -0.1331409), wk =   0.2500000
        k(    5) = (  -0.5000000   0.0000000   0.0000000), wk =   0.2500000
        k(    6) = (  -0.5000000   0.0000000  -0.1331409), wk =   0.2500000
        k(    7) = (  -0.5000000  -0.2244440   0.0000000), wk =   0.2500000
        k(    8) = (  -0.5000000  -0.2244440  -0.1331409), wk =   0.2500000

                       cryst. coord.
        k(    1) = (   0.0000000   0.0000000   0.0000000), wk =   0.2500000
        k(    2) = (   0.0000000   0.0000000  -0.5000000), wk =   0.2500000
        k(    3) = (   0.0000000  -0.5000000   0.0000000), wk =   0.2500000
        k(    4) = (   0.0000000  -0.5000000  -0.5000000), wk =   0.2500000
        k(    5) = (  -0.5000000   0.0000000   0.0000000), wk =   0.2500000
        k(    6) = (  -0.5000000   0.0000000  -0.5000000), wk =   0.2500000
        k(    7) = (  -0.5000000  -0.5000000   0.0000000), wk =   0.2500000
        k(    8) = (  -0.5000000  -0.5000000  -0.5000000), wk =   0.2500000

     Dense  grid:   400005 G-vectors     FFT dimensions: (  48, 108, 180)

     Dynamical RAM for                 wfc:       1.40 MB

     Dynamical RAM for     wfc (w. buffer):      12.58 MB

     Dynamical RAM for           str. fact:       0.38 MB

     Dynamical RAM for           local pot:       0.00 MB

     Dynamical RAM for          nlocal pot:       6.67 MB

     Dynamical RAM for                qrad:      32.52 MB

     Dynamical RAM for          rho,v,vnew:       0.86 MB

     Dynamical RAM for               rhoin:       0.29 MB

     Dynamical RAM for            rho*nmix:       2.04 MB

     Dynamical RAM for           G-vectors:       0.54 MB

     Dynamical RAM for          h,s,v(r/c):       0.02 MB

     Dynamical RAM for          <psi|beta>:       0.56 MB

     Dynamical RAM for      wfcinit/wfcrot:       3.55 MB

     Dynamical RAM for           addusdens:      76.35 MB

     Dynamical RAM for          addusforce:      82.53 MB

     Dynamical RAM for         addusstress:      78.26 MB

     Estimated static dynamical RAM per process >      57.18 MB

     Estimated max dynamical RAM per process >     139.71 MB

     Estimated total dynamical RAM >       6.55 GB

     Initial potential from superposition of free atoms

     starting charge  175.83511, renormalised to  176.00000

     negative rho (up, down):  5.537E-03 0.000E+00
     Starting wfcs are  104 randomized atomic wfcs
     Checking if some PAW data can be deallocated... 
       PAW data deallocated on   36 nodes for type:  1
       PAW data deallocated on   36 nodes for type:  2
       PAW data deallocated on   24 nodes for type:  3

     total cpu time spent up to now is        9.8 secs

     Self-consistent Calculation

     iteration #  1     ecut=    60.00 Ry     beta= 0.50
     CG style diagonalization
     c_bands:  3 eigenvalues not converged
     c_bands:  1 eigenvalues not converged
     ethr =  1.00E-02,  avg # of iterations =  7.5

     negative rho (up, down):  8.034E+00 0.000E+00

     total cpu time spent up to now is       57.6 secs

     total energy              =   -7779.76527535 Ry
     Harris-Foulkes estimate   =   -7800.69365847 Ry
     estimated scf accuracy    <     236.69139221 Ry

     iteration #  2     ecut=    60.00 Ry     beta= 0.50
     CG style diagonalization
     ethr =  1.00E-02,  avg # of iterations =  7.2

     negative rho (up, down):  6.931E+00 0.000E+00

     total cpu time spent up to now is       98.2 secs

     total energy              =   -7771.17290790 Ry
     Harris-Foulkes estimate   =   -7819.38788318 Ry
     estimated scf accuracy    <     118.06247499 Ry

     iteration #  3     ecut=    60.00 Ry     beta= 0.50
     CG style diagonalization
     c_bands:  2 eigenvalues not converged
     c_bands:  1 eigenvalues not converged
     c_bands:  5 eigenvalues not converged
     c_bands:  1 eigenvalues not converged
     c_bands:  3 eigenvalues not converged
     c_bands:  2 eigenvalues not converged
     c_bands:  4 eigenvalues not converged
     c_bands:  3 eigenvalues not converged
     ethr =  1.00E-02,  avg # of iterations =  6.3

     negative rho (up, down):  4.493E+00 0.000E+00

     total cpu time spent up to now is      132.5 secs

     total energy              =   -7792.70335494 Ry
     Harris-Foulkes estimate   =   -7804.27541894 Ry
     estimated scf accuracy    <   37463.99803497 Ry

     iteration #  4     ecut=    60.00 Ry     beta= 0.50
     CG style diagonalization
     c_bands:  1 eigenvalues not converged
     c_bands:  1 eigenvalues not converged
     ethr =  1.00E-02,  avg # of iterations =  4.7

     negative rho (up, down):  4.490E+00 0.000E+00

     total cpu time spent up to now is      157.6 secs

     total energy              =   -7805.67838931 Ry
     Harris-Foulkes estimate   =   -7805.80210085 Ry
     estimated scf accuracy    <   12950.99119796 Ry

     iteration #  5     ecut=    60.00 Ry     beta= 0.50
     CG style diagonalization
     ethr =  1.00E-02,  avg # of iterations =  3.4

     negative rho (up, down):  4.583E+00 0.000E+00

     total cpu time spent up to now is      174.1 secs

     total energy              =   -7808.59357121 Ry
     Harris-Foulkes estimate   =   -7807.60673246 Ry
     estimated scf accuracy    <   13786.69465235 Ry

     iteration #  6     ecut=    60.00 Ry     beta= 0.50
     CG style diagonalization
     c_bands:  1 eigenvalues not converged
     ethr =  1.00E-02,  avg # of iterations =  3.3

     negative rho (up, down):  4.528E+00 0.000E+00

     total cpu time spent up to now is      190.0 secs

     total energy              =   -7789.22709505 Ry
     Harris-Foulkes estimate   =   -7811.09376121 Ry
     estimated scf accuracy    <   22739.35965025 Ry

     iteration #  7     ecut=    60.00 Ry     beta= 0.50
     CG style diagonalization
     ethr =  1.00E-02,  avg # of iterations =  3.3

     negative rho (up, down):  4.393E+00 0.000E+00

     total cpu time spent up to now is      206.0 secs

     total energy              =   -7798.56456789 Ry
     Harris-Foulkes estimate   =   -7804.10795995 Ry
     estimated scf accuracy    <      34.73324513 Ry

     iteration #  8     ecut=    60.00 Ry     beta= 0.50
     CG style diagonalization
     ethr =  1.00E-02,  avg # of iterations =  3.7

     negative rho (up, down):  3.862E+00 0.000E+00

     total cpu time spent up to now is      224.7 secs

     total energy              =   -7801.39285349 Ry
     Harris-Foulkes estimate   =   -7801.52522835 Ry
     estimated scf accuracy    <      31.87003719 Ry

     iteration #  9     ecut=    60.00 Ry     beta= 0.50
     CG style diagonalization
     ethr =  1.00E-02,  avg # of iterations =  3.2

     negative rho (up, down):  3.899E+00 0.000E+00

     total cpu time spent up to now is      240.3 secs

     total energy              =   -7802.77565316 Ry
     Harris-Foulkes estimate   =   -7802.62656108 Ry
     estimated scf accuracy    <      19.53151548 Ry

     iteration # 10     ecut=    60.00 Ry     beta= 0.50
     CG style diagonalization
     ethr =  1.00E-02,  avg # of iterations =  3.0

     negative rho (up, down):  1.126E+01 0.000E+00

     total cpu time spent up to now is      254.5 secs

     total energy              =   -7805.93802849 Ry
     Harris-Foulkes estimate   =   -7803.24987763 Ry
     estimated scf accuracy    <      18.58118664 Ry

     iteration # 11     ecut=    60.00 Ry     beta= 0.50
     CG style diagonalization
     c_bands:  5 eigenvalues not converged
     c_bands:  3 eigenvalues not converged
     c_bands:  1 eigenvalues not converged
     c_bands:  1 eigenvalues not converged
     c_bands:  3 eigenvalues not converged
     ethr =  1.00E-02,  avg # of iterations = 12.5

     negative rho (up, down):  4.222E+00 0.000E+00

     total cpu time spent up to now is      323.6 secs

     total energy              =   -7780.72592545 Ry
     Harris-Foulkes estimate   =   -7906.58835663 Ry
     estimated scf accuracy    <  210195.99002128 Ry

     iteration # 12     ecut=    60.00 Ry     beta= 0.50
     CG style diagonalization
     c_bands:  1 eigenvalues not converged
     c_bands:  1 eigenvalues not converged
     ethr =  1.00E-02,  avg # of iterations =  6.3

     negative rho (up, down):  4.755E+00 0.000E+00

     total cpu time spent up to now is      358.3 secs

     total energy              =   -7832.94149976 Ry
     Harris-Foulkes estimate   =   -7814.00428775 Ry
     estimated scf accuracy    <  146303.82447786 Ry

     iteration # 13     ecut=    60.00 Ry     beta= 0.50
     CG style diagonalization
     ethr =  1.00E-02,  avg # of iterations =  3.9

     negative rho (up, down):  4.096E+00 0.000E+00

     total cpu time spent up to now is      377.7 secs

     total energy              =   -7828.54926472 Ry
     Harris-Foulkes estimate   =   -7840.53409122 Ry
     estimated scf accuracy    <  184979.10218777 Ry

     iteration # 14     ecut=    60.00 Ry     beta= 0.50
     CG style diagonalization
     ethr =  1.00E-02,  avg # of iterations =  3.3

     negative rho (up, down):  4.048E+00 0.000E+00

     total cpu time spent up to now is      393.9 secs

     total energy              =   -7824.02983145 Ry
     Harris-Foulkes estimate   =   -7830.86602189 Ry
     estimated scf accuracy    <  180221.65952863 Ry

     iteration # 15     ecut=    60.00 Ry     beta= 0.50
     CG style diagonalization
     ethr =  1.00E-02,  avg # of iterations =  3.2

     negative rho (up, down):  4.130E+00 0.000E+00

     total cpu time spent up to now is      409.4 secs

     total energy              =   -7828.11137356 Ry
     Harris-Foulkes estimate   =   -7825.85103368 Ry
     estimated scf accuracy    <  168180.63276500 Ry

     iteration # 16     ecut=    60.00 Ry     beta= 0.50
     CG style diagonalization
     ethr =  1.00E-02,  avg # of iterations =  3.0

     negative rho (up, down):  4.725E+00 0.000E+00

     total cpu time spent up to now is      423.9 secs

     total energy              =   -7803.23335239 Ry
     Harris-Foulkes estimate   =   -7828.63215027 Ry
     estimated scf accuracy    <  169813.62481427 Ry

     iteration # 17     ecut=    60.00 Ry     beta= 0.50
     CG style diagonalization
     ethr =  1.00E-02,  avg # of iterations =  3.4

     negative rho (up, down):  3.829E+00 0.000E+00

     total cpu time spent up to now is      440.4 secs

     total energy              =   -7801.26520159 Ry
     Harris-Foulkes estimate   =   -7816.52110927 Ry
     estimated scf accuracy    <  114386.56912189 Ry

     iteration # 18     ecut=    60.00 Ry     beta= 0.50
     CG style diagonalization
     c_bands:  1 eigenvalues not converged
     c_bands:  1 eigenvalues not converged
     c_bands:  1 eigenvalues not converged
     c_bands:  1 eigenvalues not converged
     ethr =  1.00E-02,  avg # of iterations =  4.1

     negative rho (up, down):  3.742E+00 0.000E+00

     total cpu time spent up to now is      461.8 secs

     total energy              =   -7796.44962111 Ry
     Harris-Foulkes estimate   =   -7807.79831309 Ry
     estimated scf accuracy    <   61334.16099956 Ry

     iteration # 19     ecut=    60.00 Ry     beta= 0.50
     CG style diagonalization
     ethr =  1.00E-02,  avg # of iterations =  3.4

     negative rho (up, down):  3.394E+00 0.000E+00

     total cpu time spent up to now is      478.4 secs

     total energy              =   -7795.90523230 Ry
     Harris-Foulkes estimate   =   -7803.45473121 Ry
     estimated scf accuracy    <    1776.97698153 Ry

     iteration # 20     ecut=    60.00 Ry     beta= 0.50
     CG style diagonalization
     c_bands:  1 eigenvalues not converged
     c_bands:  2 eigenvalues not converged
     c_bands:  3 eigenvalues not converged
     c_bands:  1 eigenvalues not converged
     c_bands:  4 eigenvalues not converged
     c_bands:  2 eigenvalues not converged
     c_bands:  1 eigenvalues not converged
     ethr =  1.00E-02,  avg # of iterations =  6.3

     negative rho (up, down):  4.338E+00 0.000E+00

     total cpu time spent up to now is      513.9 secs

     total energy              =   -7847.05560300 Ry
     Harris-Foulkes estimate   =   -7840.63466303 Ry
     estimated scf accuracy    <   77509.14466270 Ry

     iteration # 21     ecut=    60.00 Ry     beta= 0.50
     CG style diagonalization
     c_bands:  1 eigenvalues not converged
     ethr =  1.00E-02,  avg # of iterations =  4.8

     negative rho (up, down):  4.747E+00 0.000E+00

     total cpu time spent up to now is      541.2 secs

     total energy              =   -7807.34601046 Ry
     Harris-Foulkes estimate   =   -7862.77417180 Ry
     estimated scf accuracy    <  107313.56233356 Ry

     iteration # 22     ecut=    60.00 Ry     beta= 0.50
     CG style diagonalization
     ethr =  1.00E-02,  avg # of iterations =  4.0

     negative rho (up, down):  3.635E+00 0.000E+00

     total cpu time spent up to now is      561.7 secs

     total energy              =   -7805.72288735 Ry
     Harris-Foulkes estimate   =   -7815.09092562 Ry
     estimated scf accuracy    <   63351.33893178 Ry

     iteration # 23     ecut=    60.00 Ry     beta= 0.50
     CG style diagonalization
     ethr =  1.00E-02,  avg # of iterations =  3.5

     negative rho (up, down):  3.882E+00 0.000E+00

     total cpu time spent up to now is      578.7 secs

     total energy              =   -7823.63553453 Ry
     Harris-Foulkes estimate   =   -7811.22494567 Ry
     estimated scf accuracy    <   50897.91381133 Ry

     iteration # 24     ecut=    60.00 Ry     beta= 0.50
     CG style diagonalization
     c_bands:  1 eigenvalues not converged
     ethr =  1.00E-02,  avg # of iterations =  3.5

     negative rho (up, down):  5.259E+00 0.000E+00

     total cpu time spent up to now is      595.7 secs

     total energy              =   -7796.39587819 Ry
     Harris-Foulkes estimate   =   -7833.40132522 Ry
     estimated scf accuracy    <   89933.53383019 Ry

     iteration # 25     ecut=    60.00 Ry     beta= 0.50
     CG style diagonalization
     c_bands:  1 eigenvalues not converged
     c_bands:  1 eigenvalues not converged
     c_bands:  1 eigenvalues not converged
     c_bands:  1 eigenvalues not converged
     ethr =  1.00E-02,  avg # of iterations =  3.5

     negative rho (up, down):  4.834E+00 0.000E+00

     total cpu time spent up to now is      613.3 secs

     total energy              =   -7809.97249330 Ry
     Harris-Foulkes estimate   =   -7806.71731514 Ry
     estimated scf accuracy    <   35117.91600919 Ry

     iteration # 26     ecut=    60.00 Ry     beta= 0.50
     CG style diagonalization
     c_bands:  1 eigenvalues not converged
     ethr =  1.00E-02,  avg # of iterations =  3.6

     negative rho (up, down):  4.151E+00 0.000E+00

     total cpu time spent up to now is      631.3 secs

     total energy              =   -7882.88087875 Ry
     Harris-Foulkes estimate   =   -7820.72244563 Ry
     estimated scf accuracy    <   82111.49532794 Ry

     iteration # 27     ecut=    60.00 Ry     beta= 0.50
     CG style diagonalization
     c_bands:  1 eigenvalues not converged
     c_bands:  1 eigenvalues not converged
     c_bands:  1 eigenvalues not converged
     c_bands:  1 eigenvalues not converged
     ethr =  1.00E-02,  avg # of iterations =  3.3

     negative rho (up, down):  4.172E+00 0.000E+00

     total cpu time spent up to now is      647.5 secs

     total energy              =   -7917.90550154 Ry
     Harris-Foulkes estimate   =   -7898.32342026 Ry
     estimated scf accuracy    <  128445.94329298 Ry

     iteration # 28     ecut=    60.00 Ry     beta= 0.50
     CG style diagonalization
     ethr =  1.00E-02,  avg # of iterations =  3.1

     negative rho (up, down):  1.664E+01 0.000E+00

     total cpu time spent up to now is      662.5 secs

     total energy              =   -8087.13914699 Ry
     Harris-Foulkes estimate   =   -7921.76634805 Ry
     estimated scf accuracy    <  137767.20677189 Ry

     iteration # 29     ecut=    60.00 Ry     beta= 0.50
     CG style diagonalization
     c_bands:  1 eigenvalues not converged
     c_bands:  2 eigenvalues not converged
     c_bands:  1 eigenvalues not converged
     c_bands:  2 eigenvalues not converged
     c_bands:  2 eigenvalues not converged
     c_bands:  2 eigenvalues not converged
     c_bands:  1 eigenvalues not converged
     c_bands:  2 eigenvalues not converged
     ethr =  1.00E-02,  avg # of iterations = 16.3

     negative rho (up, down):  1.640E+01 0.000E+00

     total cpu time spent up to now is      752.8 secs

     total energy              =   -8209.43022850 Ry
     Harris-Foulkes estimate   =   -8214.98251095 Ry
     estimated scf accuracy    <  278165.25604946 Ry

     iteration # 30     ecut=    60.00 Ry     beta= 0.50
     CG style diagonalization
     c_bands:  1 eigenvalues not converged
     c_bands:  1 eigenvalues not converged
     c_bands:  1 eigenvalues not converged
     c_bands:  1 eigenvalues not converged
     c_bands:  2 eigenvalues not converged
     c_bands:  2 eigenvalues not converged
     ethr =  1.00E-02,  avg # of iterations =  3.7

     negative rho (up, down):  1.828E+01 0.000E+00

     total cpu time spent up to now is      771.1 secs

     total energy              =   -8297.37142622 Ry
     Harris-Foulkes estimate   =   -8240.70661979 Ry
     estimated scf accuracy    <  252484.36330243 Ry

     iteration # 31     ecut=    60.00 Ry     beta= 0.50
     CG style diagonalization
     c_bands:  1 eigenvalues not converged
     c_bands:  1 eigenvalues not converged
     c_bands:  1 eigenvalues not converged
     c_bands:  1 eigenvalues not converged
     c_bands:  1 eigenvalues not converged
     ethr =  1.00E-02,  avg # of iterations =  3.6

     negative rho (up, down):  1.998E+01 0.000E+00

     total cpu time spent up to now is      788.5 secs

     total energy              =   -8276.48692208 Ry
     Harris-Foulkes estimate   =   -8314.18071888 Ry
     estimated scf accuracy    <  266408.75116976 Ry

     iteration # 32     ecut=    60.00 Ry     beta= 0.50
     CG style diagonalization
     c_bands:  1 eigenvalues not converged
     c_bands:  2 eigenvalues not converged
     c_bands:  1 eigenvalues not converged
     c_bands:  1 eigenvalues not converged
     c_bands:  1 eigenvalues not converged
     c_bands:  2 eigenvalues not converged
     ethr =  1.00E-02,  avg # of iterations =  4.5

     negative rho (up, down):  2.527E+01 0.000E+00

     total cpu time spent up to now is      812.3 secs

     total energy              =   -8332.62728021 Ry
     Harris-Foulkes estimate   =   -8306.21518265 Ry
     estimated scf accuracy    <  291393.49262367 Ry

     iteration # 33     ecut=    60.00 Ry     beta= 0.50
     CG style diagonalization
     c_bands:  3 eigenvalues not converged
     c_bands:  1 eigenvalues not converged
     c_bands:  2 eigenvalues not converged
     c_bands:  2 eigenvalues not converged
     c_bands:  1 eigenvalues not converged
     c_bands:  2 eigenvalues not converged
     c_bands:  1 eigenvalues not converged
     c_bands:  1 eigenvalues not converged
     ethr =  1.00E-02,  avg # of iterations =  5.1

     negative rho (up, down):  3.311E+01 0.000E+00

     total cpu time spent up to now is      839.2 secs

     total energy              =   -7978.78012550 Ry
     Harris-Foulkes estimate   =   -8367.60529943 Ry
     estimated scf accuracy    <  313569.39048597 Ry

     iteration # 34     ecut=    60.00 Ry     beta= 0.50
     CG style diagonalization
     c_bands:  4 eigenvalues not converged
     c_bands:  1 eigenvalues not converged
     c_bands:  2 eigenvalues not converged
     c_bands:  4 eigenvalues not converged
     c_bands:  2 eigenvalues not converged
     c_bands:  3 eigenvalues not converged
     c_bands:  4 eigenvalues not converged
     ethr =  1.00E-02,  avg # of iterations = 11.9

     negative rho (up, down):  2.998E+01 0.000E+00

     total cpu time spent up to now is      902.0 secs

     total energy              =   -8183.91573814 Ry
     Harris-Foulkes estimate   =   -8286.81473952 Ry
     estimated scf accuracy    <  235199.28266854 Ry

     iteration # 35     ecut=    60.00 Ry     beta= 0.50
     CG style diagonalization
     c_bands:  2 eigenvalues not converged
     c_bands:  1 eigenvalues not converged
     c_bands:  2 eigenvalues not converged
     c_bands:  1 eigenvalues not converged
     c_bands:  3 eigenvalues not converged
     c_bands:  1 eigenvalues not converged
     c_bands:  2 eigenvalues not converged
     ethr =  1.00E-02,  avg # of iterations =  5.5

     negative rho (up, down):  1.766E+02 0.000E+00

     total cpu time spent up to now is      931.6 secs

     total energy              =   -9082.36110522 Ry
     Harris-Foulkes estimate   =   -8257.96831453 Ry
     estimated scf accuracy    <  290151.24817940 Ry

     iteration # 36     ecut=    60.00 Ry     beta= 0.50
     CG style diagonalization
     c_bands:  3 eigenvalues not converged
     c_bands:  4 eigenvalues not converged
     c_bands:  2 eigenvalues not converged
     c_bands:  3 eigenvalues not converged
     c_bands:  4 eigenvalues not converged
     c_bands:  5 eigenvalues not converged
     c_bands:  4 eigenvalues not converged
     c_bands:  4 eigenvalues not converged
     ethr =  1.00E-02,  avg # of iterations = 66.0

     negative rho (up, down):  1.831E+02 0.000E+00

     total cpu time spent up to now is     1303.2 secs

     total energy              =  -14357.78620207 Ry
     Harris-Foulkes estimate   =  -14725.69199731 Ry
     estimated scf accuracy    <  361241.65563376 Ry

     iteration # 37     ecut=    60.00 Ry     beta= 0.50
     CG style diagonalization
     c_bands:  1 eigenvalues not converged
     c_bands:  4 eigenvalues not converged
     c_bands:  1 eigenvalues not converged
     c_bands:  5 eigenvalues not converged
     c_bands:  1 eigenvalues not converged
     c_bands:  4 eigenvalues not converged
     c_bands:  2 eigenvalues not converged
     ethr =  1.00E-02,  avg # of iterations = 69.1

     negative rho (up, down):  2.876E+02 0.000E+00

     total cpu time spent up to now is     1691.2 secs

     total energy              =  -13096.92594111 Ry
     Harris-Foulkes estimate   =  -16541.67611848 Ry
     estimated scf accuracy    <  328946.40760689 Ry

     iteration # 38     ecut=    60.00 Ry     beta= 0.50
     CG style diagonalization
     c_bands: 21 eigenvalues not converged
     c_bands:  9 eigenvalues not converged
     c_bands: 20 eigenvalues not converged
     c_bands: 19 eigenvalues not converged
     c_bands: 14 eigenvalues not converged
     c_bands: 22 eigenvalues not converged
     c_bands:  7 eigenvalues not converged
     c_bands: 16 eigenvalues not converged
     ethr =  1.00E-02,  avg # of iterations = 91.6

     negative rho (up, down):  3.547E+02 0.000E+00

     total cpu time spent up to now is     2210.1 secs

     total energy              =  -13246.77760751 Ry
     Harris-Foulkes estimate   =  -16991.29654764 Ry
     estimated scf accuracy    <  271742.15030716 Ry

     iteration # 39     ecut=    60.00 Ry     beta= 0.50
     CG style diagonalization
     c_bands:  3 eigenvalues not converged
     c_bands:  5 eigenvalues not converged
     c_bands:  4 eigenvalues not converged
     c_bands:  5 eigenvalues not converged
     c_bands:  2 eigenvalues not converged
     c_bands:  3 eigenvalues not converged
     c_bands:  4 eigenvalues not converged
     c_bands:  1 eigenvalues not converged
     ethr =  1.00E-02,  avg # of iterations = 68.9

     negative rho (up, down):  4.784E+02 0.000E+00

     total cpu time spent up to now is     2596.9 secs

     total energy              =  -11267.92713703 Ry
     Harris-Foulkes estimate   =  -14126.80268308 Ry
     estimated scf accuracy    <  241786.51054818 Ry

     iteration # 40     ecut=    60.00 Ry     beta= 0.50
     CG style diagonalization
     c_bands:  4 eigenvalues not converged
     c_bands:  8 eigenvalues not converged
     c_bands:  5 eigenvalues not converged
     c_bands:  7 eigenvalues not converged
     c_bands:  8 eigenvalues not converged
     c_bands:  3 eigenvalues not converged
     c_bands:  2 eigenvalues not converged
     c_bands:  4 eigenvalues not converged
     ethr =  1.00E-02,  avg # of iterations = 84.0

     negative rho (up, down):  5.675E+02 0.000E+00

     total cpu time spent up to now is     3071.6 secs

     total energy              =  -12763.84593949 Ry
     Harris-Foulkes estimate   =  -17015.23273084 Ry
     estimated scf accuracy    <  193204.30522631 Ry

     iteration # 41     ecut=    60.00 Ry     beta= 0.50
     CG style diagonalization
     c_bands:  1 eigenvalues not converged
     c_bands:  2 eigenvalues not converged
     c_bands:  2 eigenvalues not converged
     c_bands:  5 eigenvalues not converged
     c_bands:  4 eigenvalues not converged
     c_bands:  3 eigenvalues not converged
     ethr =  1.00E-02,  avg # of iterations = 64.6

     negative rho (up, down):  5.781E+02 0.000E+00

     total cpu time spent up to now is     3433.1 secs

     total energy              =  -14420.48533460 Ry
     Harris-Foulkes estimate   =  -15876.84484520 Ry
     estimated scf accuracy    <  109568.51818525 Ry

     iteration # 42     ecut=    60.00 Ry     beta= 0.50
     CG style diagonalization
     c_bands:  2 eigenvalues not converged
     c_bands:  2 eigenvalues not converged
     c_bands:  1 eigenvalues not converged
     c_bands:  4 eigenvalues not converged
     c_bands:  4 eigenvalues not converged
     c_bands:  4 eigenvalues not converged
     c_bands:  1 eigenvalues not converged
     c_bands:  3 eigenvalues not converged
     ethr =  1.00E-02,  avg # of iterations = 54.4

     negative rho (up, down):  6.459E+02 0.000E+00

     total cpu time spent up to now is     3738.8 secs

     total energy              =  -14942.30935990 Ry
     Harris-Foulkes estimate   =  -15411.75025598 Ry
     estimated scf accuracy    <   51454.94033056 Ry

     iteration # 43     ecut=    60.00 Ry     beta= 0.50
     CG style diagonalization
     c_bands:  2 eigenvalues not converged
     c_bands:  3 eigenvalues not converged
     c_bands:  3 eigenvalues not converged
     c_bands:  1 eigenvalues not converged
     c_bands:  4 eigenvalues not converged
     c_bands:  4 eigenvalues not converged
     c_bands:  3 eigenvalues not converged
     ethr =  1.00E-02,  avg # of iterations = 49.7

     negative rho (up, down):  6.721E+02 0.000E+00

     total cpu time spent up to now is     4015.6 secs

     total energy              =  -15366.14449364 Ry
     Harris-Foulkes estimate   =  -15788.80517939 Ry
     estimated scf accuracy    <   25425.19086284 Ry

     iteration # 44     ecut=    60.00 Ry     beta= 0.50
     CG style diagonalization
     c_bands:  2 eigenvalues not converged
     c_bands:  3 eigenvalues not converged
     c_bands:  3 eigenvalues not converged
     c_bands:  2 eigenvalues not converged
     c_bands:  2 eigenvalues not converged
     c_bands:  1 eigenvalues not converged
     c_bands:  3 eigenvalues not converged
     c_bands:  1 eigenvalues not converged
     ethr =  1.00E-02,  avg # of iterations = 35.3

     negative rho (up, down):  7.775E+02 0.000E+00

     total cpu time spent up to now is     4215.0 secs

     total energy              =  -15512.55748538 Ry
     Harris-Foulkes estimate   =  -15799.04915551 Ry
     estimated scf accuracy    <   14907.39072206 Ry

     iteration # 45     ecut=    60.00 Ry     beta= 0.50
     CG style diagonalization
     c_bands:  5 eigenvalues not converged
     c_bands:  5 eigenvalues not converged
     c_bands:  4 eigenvalues not converged
     c_bands:  4 eigenvalues not converged
     c_bands:  1 eigenvalues not converged
     c_bands:  2 eigenvalues not converged
     c_bands:  4 eigenvalues not converged
     c_bands:  1 eigenvalues not converged
     ethr =  1.00E-02,  avg # of iterations = 54.0

     negative rho (up, down):  8.258E+02 0.000E+00

     total cpu time spent up to now is     4517.2 secs

     total energy              =  -16344.61673257 Ry
     Harris-Foulkes estimate   =  -17111.66864954 Ry
     estimated scf accuracy    <   17651.69786001 Ry

     iteration # 46     ecut=    60.00 Ry     beta= 0.50
     CG style diagonalization
     c_bands:  2 eigenvalues not converged
     c_bands:  4 eigenvalues not converged
     c_bands:  3 eigenvalues not converged
     c_bands:  5 eigenvalues not converged
     c_bands:  3 eigenvalues not converged
     c_bands:  3 eigenvalues not converged
     ethr =  1.00E-02,  avg # of iterations = 44.6

     negative rho (up, down):  8.975E+02 0.000E+00

     total cpu time spent up to now is     4767.2 secs

     total energy              =  -17035.32597005 Ry
     Harris-Foulkes estimate   =  -17320.57282522 Ry
     estimated scf accuracy    <    8066.46059007 Ry

     iteration # 47     ecut=    60.00 Ry     beta= 0.50
     CG style diagonalization
     c_bands:  4 eigenvalues not converged
     c_bands:  2 eigenvalues not converged
     c_bands:  2 eigenvalues not converged
     c_bands:  2 eigenvalues not converged
     c_bands:  3 eigenvalues not converged
     ethr =  1.00E-02,  avg # of iterations = 31.6

     negative rho (up, down):  9.101E+02 0.000E+00

     total cpu time spent up to now is     4941.7 secs

     total energy              =  -16959.34032117 Ry
     Harris-Foulkes estimate   =  -17313.57256459 Ry
     estimated scf accuracy    <    2317.61834878 Ry

     iteration # 48     ecut=    60.00 Ry     beta= 0.50
     CG style diagonalization
     c_bands:  5 eigenvalues not converged
     c_bands:  1 eigenvalues not converged
     c_bands:  5 eigenvalues not converged
     c_bands:  1 eigenvalues not converged
     c_bands:  2 eigenvalues not converged
     c_bands:  5 eigenvalues not converged
     c_bands:  1 eigenvalues not converged
     ethr =  1.00E-02,  avg # of iterations = 12.8

     negative rho (up, down):  9.126E+02 0.000E+00

     total cpu time spent up to now is     5011.6 secs

     total energy              =  -16763.63490723 Ry
     Harris-Foulkes estimate   =  -17033.17744838 Ry
     estimated scf accuracy    <    1466.52182468 Ry

     iteration # 49     ecut=    60.00 Ry     beta= 0.50
     CG style diagonalization
     c_bands:  3 eigenvalues not converged
     c_bands:  3 eigenvalues not converged
     c_bands:  5 eigenvalues not converged
     c_bands:  3 eigenvalues not converged
     c_bands:  5 eigenvalues not converged
     c_bands:  5 eigenvalues not converged
     c_bands:  5 eigenvalues not converged
     c_bands:  2 eigenvalues not converged
     ethr =  1.00E-02,  avg # of iterations = 32.7

     negative rho (up, down):  8.966E+02 0.000E+00

     total cpu time spent up to now is     5193.4 secs

     total energy              =  -16868.02415163 Ry
     Harris-Foulkes estimate   =  -17086.16913368 Ry
     estimated scf accuracy    <     969.09396580 Ry

     iteration # 50     ecut=    60.00 Ry     beta= 0.50
     CG style diagonalization
     c_bands:  4 eigenvalues not converged
     c_bands:  5 eigenvalues not converged
     c_bands:  2 eigenvalues not converged
     c_bands:  5 eigenvalues not converged
     c_bands:  5 eigenvalues not converged
     c_bands:  2 eigenvalues not converged
     c_bands:  3 eigenvalues not converged
     ethr =  1.00E-02,  avg # of iterations = 11.4

     negative rho (up, down):  9.032E+02 0.000E+00

     total cpu time spent up to now is     5252.8 secs

     total energy              =  -16861.76959576 Ry
     Harris-Foulkes estimate   =  -16911.03373550 Ry
     estimated scf accuracy    <     761.88725965 Ry

     iteration # 51     ecut=    60.00 Ry     beta= 0.50
     CG style diagonalization
     c_bands:  5 eigenvalues not converged
     c_bands:  1 eigenvalues not converged
     c_bands:  5 eigenvalues not converged
     c_bands:  4 eigenvalues not converged
     c_bands:  4 eigenvalues not converged
     c_bands:  1 eigenvalues not converged
     c_bands:  3 eigenvalues not converged
     ethr =  1.00E-02,  avg # of iterations = 23.2

     negative rho (up, down):  9.058E+02 0.000E+00

     total cpu time spent up to now is     5380.7 secs

     total energy              =  -16930.93247107 Ry
     Harris-Foulkes estimate   =  -17037.61075416 Ry
     estimated scf accuracy    <     685.63886519 Ry

     iteration # 52     ecut=    60.00 Ry     beta= 0.50
     CG style diagonalization
     c_bands:  1 eigenvalues not converged
     c_bands:  1 eigenvalues not converged
     c_bands:  2 eigenvalues not converged
     c_bands:  1 eigenvalues not converged
     c_bands:  1 eigenvalues not converged
     c_bands:  1 eigenvalues not converged
     c_bands:  3 eigenvalues not converged
     ethr =  1.00E-02,  avg # of iterations = 15.0

     negative rho (up, down):  9.072E+02 0.000E+00

     total cpu time spent up to now is     5462.9 secs

     total energy              =  -16997.24072296 Ry
     Harris-Foulkes estimate   =  -17065.18731818 Ry
     estimated scf accuracy    <     367.32443894 Ry

     iteration # 53     ecut=    60.00 Ry     beta= 0.50
     CG style diagonalization
     c_bands:  2 eigenvalues not converged
     c_bands:  2 eigenvalues not converged
     c_bands:  3 eigenvalues not converged
     c_bands:  1 eigenvalues not converged
     c_bands:  1 eigenvalues not converged
     c_bands:  2 eigenvalues not converged
     ethr =  1.00E-02,  avg # of iterations = 13.4

     negative rho (up, down):  9.167E+02 0.000E+00

     total cpu time spent up to now is     5535.3 secs

     total energy              =  -17027.39094674 Ry
     Harris-Foulkes estimate   =  -17056.52389159 Ry
     estimated scf accuracy    <     244.04367180 Ry

     iteration # 54     ecut=    60.00 Ry     beta= 0.50
     CG style diagonalization
     ethr =  1.00E-02,  avg # of iterations =  3.6

     negative rho (up, down):  9.154E+02 0.000E+00

     total cpu time spent up to now is     5553.2 secs

     total energy              =  -16994.02314414 Ry
     Harris-Foulkes estimate   =  -17031.42868341 Ry
     estimated scf accuracy    <      92.74448180 Ry

     iteration # 55     ecut=    60.00 Ry     beta= 0.50
     CG style diagonalization
     c_bands:  1 eigenvalues not converged
     c_bands:  1 eigenvalues not converged
     c_bands:  1 eigenvalues not converged
     ethr =  1.00E-02,  avg # of iterations =  3.4

     negative rho (up, down):  9.162E+02 0.000E+00

     total cpu time spent up to now is     5569.7 secs

     total energy              =  -16981.07768997 Ry
     Harris-Foulkes estimate   =  -16997.58746528 Ry
     estimated scf accuracy    <      33.13696721 Ry

     iteration # 56     ecut=    60.00 Ry     beta= 0.50
     CG style diagonalization
     c_bands:  3 eigenvalues not converged
     c_bands:  3 eigenvalues not converged
     c_bands:  4 eigenvalues not converged
     c_bands:  1 eigenvalues not converged
     c_bands:  4 eigenvalues not converged
     c_bands:  3 eigenvalues not converged
     ethr =  1.00E-02,  avg # of iterations = 12.2

     negative rho (up, down):  9.143E+02 0.000E+00

     total cpu time spent up to now is     5634.6 secs

     total energy              =  -17019.50001059 Ry
     Harris-Foulkes estimate   =  -17073.46610551 Ry
     estimated scf accuracy    <     296.43358668 Ry

     iteration # 57     ecut=    60.00 Ry     beta= 0.50
     CG style diagonalization
     c_bands:  4 eigenvalues not converged
     c_bands:  2 eigenvalues not converged
     c_bands:  2 eigenvalues not converged
     c_bands:  3 eigenvalues not converged
     c_bands:  2 eigenvalues not converged
     c_bands:  1 eigenvalues not converged
     c_bands:  3 eigenvalues not converged
     ethr =  1.00E-02,  avg # of iterations =  5.4

     negative rho (up, down):  9.144E+02 0.000E+00

     total cpu time spent up to now is     5663.0 secs

     total energy              =  -17043.34358730 Ry
     Harris-Foulkes estimate   =  -17039.34479835 Ry
     estimated scf accuracy    <     139.14652018 Ry

     iteration # 58     ecut=    60.00 Ry     beta= 0.50
     CG style diagonalization
     c_bands:  1 eigenvalues not converged
     ethr =  1.00E-02,  avg # of iterations =  3.5

     negative rho (up, down):  9.128E+02 0.000E+00

     total cpu time spent up to now is     5680.3 secs

     total energy              =  -16999.66903211 Ry
     Harris-Foulkes estimate   =  -17047.49432075 Ry
     estimated scf accuracy    <     143.01175792 Ry

     iteration # 59     ecut=    60.00 Ry     beta= 0.50
     CG style diagonalization
     c_bands:  3 eigenvalues not converged
     c_bands:  5 eigenvalues not converged
     c_bands:  5 eigenvalues not converged
     c_bands:  1 eigenvalues not converged
     c_bands:  2 eigenvalues not converged
     ethr =  1.00E-02,  avg # of iterations =  7.7

     negative rho (up, down):  9.143E+02 0.000E+00

     total cpu time spent up to now is     5720.4 secs

     total energy              =  -17034.05614960 Ry
     Harris-Foulkes estimate   =  -17025.85596435 Ry
     estimated scf accuracy    <      54.81132510 Ry

     iteration # 60     ecut=    60.00 Ry     beta= 0.50
     CG style diagonalization
     ethr =  1.00E-02,  avg # of iterations =  3.2

     negative rho (up, down):  9.143E+02 0.000E+00

     total cpu time spent up to now is     5735.5 secs

     total energy              =  -17029.88686007 Ry
     Harris-Foulkes estimate   =  -17035.19187838 Ry
     estimated scf accuracy    <      59.76534504 Ry

     iteration # 61     ecut=    60.00 Ry     beta= 0.50
     CG style diagonalization
     ethr =  1.00E-02,  avg # of iterations =  3.0

     negative rho (up, down):  9.146E+02 0.000E+00

     total cpu time spent up to now is     5749.7 secs

     total energy              =  -17051.27820758 Ry
     Harris-Foulkes estimate   =  -17030.50826322 Ry
     estimated scf accuracy    <      57.46452801 Ry

     iteration # 62     ecut=    60.00 Ry     beta= 0.50
     CG style diagonalization
     ethr =  1.00E-02,  avg # of iterations =  3.0

     negative rho (up, down):  9.147E+02 0.000E+00

     total cpu time spent up to now is     5763.9 secs

     total energy              =  -17027.66210413 Ry
     Harris-Foulkes estimate   =  -17051.97214858 Ry
     estimated scf accuracy    <      93.35407622 Ry

     iteration # 63     ecut=    60.00 Ry     beta= 0.50
     CG style diagonalization
     ethr =  1.00E-02,  avg # of iterations =  3.0

     negative rho (up, down):  9.145E+02 0.000E+00

     total cpu time spent up to now is     5777.9 secs

     total energy              =  -17009.59161684 Ry
     Harris-Foulkes estimate   =  -17028.10461359 Ry
     estimated scf accuracy    <      54.97880724 Ry

     iteration # 64     ecut=    60.00 Ry     beta= 0.50
     CG style diagonalization
     c_bands:  1 eigenvalues not converged
     c_bands:  1 eigenvalues not converged
     ethr =  1.00E-02,  avg # of iterations =  3.2

     negative rho (up, down):  9.136E+02 0.000E+00

     total cpu time spent up to now is     5793.3 secs

     total energy              =  -16995.18584708 Ry
     Harris-Foulkes estimate   =  -17012.00446626 Ry
     estimated scf accuracy    <      26.55891134 Ry

     iteration # 65     ecut=    60.00 Ry     beta= 0.50
     CG style diagonalization
     c_bands:  2 eigenvalues not converged
     c_bands:  2 eigenvalues not converged
     c_bands:  3 eigenvalues not converged
     c_bands:  3 eigenvalues not converged
     c_bands:  1 eigenvalues not converged
     c_bands:  3 eigenvalues not converged
     c_bands:  2 eigenvalues not converged
     c_bands:  2 eigenvalues not converged
     ethr =  1.00E-02,  avg # of iterations = 12.6

     negative rho (up, down):  9.136E+02 0.000E+00

     total cpu time spent up to now is     5860.1 secs

     total energy              =  -17061.90292750 Ry
     Harris-Foulkes estimate   =  -17064.09686741 Ry
     estimated scf accuracy    <     111.55729760 Ry

     iteration # 66     ecut=    60.00 Ry     beta= 0.50
     CG style diagonalization
     c_bands:  2 eigenvalues not converged
     c_bands:  1 eigenvalues not converged
     c_bands:  1 eigenvalues not converged
     ethr =  1.00E-02,  avg # of iterations =  4.0

     negative rho (up, down):  9.138E+02 0.000E+00

     total cpu time spent up to now is     5880.5 secs

     total energy              =  -17061.78855528 Ry
     Harris-Foulkes estimate   =  -17066.76750913 Ry
     estimated scf accuracy    <     120.79388043 Ry

     iteration # 67     ecut=    60.00 Ry     beta= 0.50
     CG style diagonalization
     c_bands:  2 eigenvalues not converged
     c_bands:  1 eigenvalues not converged
     ethr =  1.00E-02,  avg # of iterations =  3.6

     negative rho (up, down):  9.146E+02 0.000E+00

     total cpu time spent up to now is     5898.2 secs

     total energy              =  -17076.56725493 Ry
     Harris-Foulkes estimate   =  -17065.92649796 Ry
     estimated scf accuracy    <     131.86044411 Ry

     iteration # 68     ecut=    60.00 Ry     beta= 0.50
     CG style diagonalization
     c_bands:  3 eigenvalues not converged
     c_bands:  1 eigenvalues not converged
     c_bands:  3 eigenvalues not converged
     c_bands:  2 eigenvalues not converged
     c_bands:  1 eigenvalues not converged
     c_bands:  2 eigenvalues not converged
     ethr =  1.00E-02,  avg # of iterations =  3.5

     negative rho (up, down):  9.147E+02 0.000E+00

     total cpu time spent up to now is     5916.6 secs

     total energy              =  -17083.10299718 Ry
     Harris-Foulkes estimate   =  -17087.78915361 Ry
     estimated scf accuracy    <     200.27905996 Ry

     iteration # 69     ecut=    60.00 Ry     beta= 0.50
     CG style diagonalization
     ethr =  1.00E-02,  avg # of iterations =  3.1

     negative rho (up, down):  9.147E+02 0.000E+00

     total cpu time spent up to now is     5931.5 secs

     total energy              =  -17086.64014841 Ry
     Harris-Foulkes estimate   =  -17084.34828939 Ry
     estimated scf accuracy    <     201.86152918 Ry

     iteration # 70     ecut=    60.00 Ry     beta= 0.50
     CG style diagonalization
     ethr =  1.00E-02,  avg # of iterations =  3.1

     negative rho (up, down):  9.148E+02 0.000E+00

     total cpu time spent up to now is     5947.2 secs

     total energy              =  -17086.88403912 Ry
     Harris-Foulkes estimate   =  -17088.44922218 Ry
     estimated scf accuracy    <     211.76501394 Ry

     iteration # 71     ecut=    60.00 Ry     beta= 0.50
     CG style diagonalization
     ethr =  1.00E-02,  avg # of iterations =  3.1

     negative rho (up, down):  9.144E+02 0.000E+00

     total cpu time spent up to now is     5961.7 secs

     total energy              =  -17087.30599523 Ry
     Harris-Foulkes estimate   =  -17088.72262424 Ry
     estimated scf accuracy    <     220.34816089 Ry

     iteration # 72     ecut=    60.00 Ry     beta= 0.50
     CG style diagonalization
     c_bands:  1 eigenvalues not converged
     ethr =  1.00E-02,  avg # of iterations =  3.1

     negative rho (up, down):  9.144E+02 0.000E+00

     total cpu time spent up to now is     5976.3 secs

     total energy              =  -17061.04825523 Ry
     Harris-Foulkes estimate   =  -17089.46753175 Ry
     estimated scf accuracy    <     231.40134686 Ry

     iteration # 73     ecut=    60.00 Ry     beta= 0.50
     CG style diagonalization
     ethr =  1.00E-02,  avg # of iterations =  3.0

     negative rho (up, down):  9.124E+02 0.000E+00

     total cpu time spent up to now is     5990.3 secs

     total energy              =  -17056.92913315 Ry
     Harris-Foulkes estimate   =  -17061.45331334 Ry
     estimated scf accuracy    <     207.31229032 Ry

     iteration # 74     ecut=    60.00 Ry     beta= 0.50
     CG style diagonalization
     c_bands:  2 eigenvalues not converged
     c_bands:  2 eigenvalues not converged
     c_bands:  2 eigenvalues not converged
     c_bands:  1 eigenvalues not converged
     c_bands:  5 eigenvalues not converged
     c_bands:  3 eigenvalues not converged
     c_bands:  1 eigenvalues not converged
     ethr =  1.00E-02,  avg # of iterations =  3.8

     negative rho (up, down):  9.142E+02 0.000E+00

     total cpu time spent up to now is     6009.2 secs

     total energy              =  -17008.06632667 Ry
     Harris-Foulkes estimate   =  -17065.13571804 Ry
     estimated scf accuracy    <     185.13236981 Ry

     iteration # 75     ecut=    60.00 Ry     beta= 0.50
     CG style diagonalization
     c_bands:  1 eigenvalues not converged
     c_bands:  1 eigenvalues not converged
     c_bands:  1 eigenvalues not converged
     c_bands:  1 eigenvalues not converged
     c_bands:  4 eigenvalues not converged
     c_bands:  2 eigenvalues not converged
     ethr =  1.00E-02,  avg # of iterations =  3.4

     negative rho (up, down):  9.150E+02 0.000E+00

     total cpu time spent up to now is     6025.6 secs

     total energy              =  -16991.00015730 Ry
     Harris-Foulkes estimate   =  -17013.20147311 Ry
     estimated scf accuracy    <     112.75560226 Ry

     iteration # 76     ecut=    60.00 Ry     beta= 0.50
     CG style diagonalization
     c_bands:  1 eigenvalues not converged
     c_bands:  5 eigenvalues not converged
     c_bands:  2 eigenvalues not converged
     c_bands:  4 eigenvalues not converged
     c_bands:  1 eigenvalues not converged
     c_bands:  5 eigenvalues not converged
     c_bands:  2 eigenvalues not converged
     ethr =  1.00E-02,  avg # of iterations =  4.5

     negative rho (up, down):  9.143E+02 0.000E+00

     total cpu time spent up to now is     6048.9 secs

     total energy              =  -17017.57538266 Ry
     Harris-Foulkes estimate   =  -17009.35967658 Ry
     estimated scf accuracy    <      70.90960073 Ry

     iteration # 77     ecut=    60.00 Ry     beta= 0.50
     CG style diagonalization
     c_bands:  2 eigenvalues not converged
     c_bands:  3 eigenvalues not converged
     c_bands:  3 eigenvalues not converged
     c_bands:  3 eigenvalues not converged
     c_bands:  4 eigenvalues not converged
     c_bands:  1 eigenvalues not converged
     ethr =  1.00E-02,  avg # of iterations =  4.1

     negative rho (up, down):  9.163E+02 0.000E+00

     total cpu time spent up to now is     6069.9 secs

     total energy              =  -17027.51873403 Ry
     Harris-Foulkes estimate   =  -17027.43600060 Ry
     estimated scf accuracy    <      64.95387424 Ry

     iteration # 78     ecut=    60.00 Ry     beta= 0.50
     CG style diagonalization
     ethr =  1.00E-02,  avg # of iterations =  3.1

     negative rho (up, down):  9.178E+02 0.000E+00

     total cpu time spent up to now is     6084.2 secs

     total energy              =  -17006.06494284 Ry
     Harris-Foulkes estimate   =  -17028.25162070 Ry
     estimated scf accuracy    <      60.64596305 Ry

     iteration # 79     ecut=    60.00 Ry     beta= 0.50
     CG style diagonalization
     c_bands:  1 eigenvalues not converged
     c_bands:  1 eigenvalues not converged
     ethr =  1.00E-02,  avg # of iterations =  3.2

     negative rho (up, down):  9.186E+02 0.000E+00

     total cpu time spent up to now is     6099.2 secs

     total energy              =  -16993.76193863 Ry
     Harris-Foulkes estimate   =  -17008.87735476 Ry
     estimated scf accuracy    <      32.86031301 Ry

     iteration # 80     ecut=    60.00 Ry     beta= 0.50
     CG style diagonalization
     c_bands:  2 eigenvalues not converged
     c_bands:  4 eigenvalues not converged
     c_bands:  3 eigenvalues not converged
     c_bands:  1 eigenvalues not converged
     c_bands:  5 eigenvalues not converged
     c_bands:  4 eigenvalues not converged
     c_bands:  3 eigenvalues not converged
     c_bands:  2 eigenvalues not converged
     ethr =  1.00E-02,  avg # of iterations =  5.0

     negative rho (up, down):  9.193E+02 0.000E+00

     total cpu time spent up to now is     6124.9 secs

     total energy              =  -17008.49949693 Ry
     Harris-Foulkes estimate   =  -17009.98623474 Ry
     estimated scf accuracy    <       9.54076352 Ry

     iteration # 81     ecut=    60.00 Ry     beta= 0.50
     CG style diagonalization
     c_bands:  2 eigenvalues not converged
     c_bands:  5 eigenvalues not converged
     c_bands:  2 eigenvalues not converged
     c_bands:  3 eigenvalues not converged
     c_bands:  4 eigenvalues not converged
     c_bands:  2 eigenvalues not converged
     c_bands:  5 eigenvalues not converged
     c_bands:  1 eigenvalues not converged
     ethr =  5.42E-03,  avg # of iterations = 23.4

     negative rho (up, down):  9.187E+02 0.000E+00

     total cpu time spent up to now is     6250.3 secs

     total energy              =  -17125.27508264 Ry
     Harris-Foulkes estimate   =  -17125.30055943 Ry
     estimated scf accuracy    <   40822.90252418 Ry

     iteration # 82     ecut=    60.00 Ry     beta= 0.50
     CG style diagonalization
     c_bands:  5 eigenvalues not converged
     c_bands:  4 eigenvalues not converged
     c_bands:  3 eigenvalues not converged
     c_bands:  4 eigenvalues not converged
     c_bands:  5 eigenvalues not converged
     c_bands:  3 eigenvalues not converged
     c_bands:  3 eigenvalues not converged
     c_bands:  4 eigenvalues not converged
     ethr =  5.42E-03,  avg # of iterations =  5.5

     negative rho (up, down):  9.190E+02 0.000E+00

     total cpu time spent up to now is     6278.7 secs

     total energy              =  -17157.32782349 Ry
     Harris-Foulkes estimate   =  -17146.69023875 Ry
     estimated scf accuracy    <   38207.34376059 Ry

     iteration # 83     ecut=    60.00 Ry     beta= 0.50
     CG style diagonalization
     c_bands:  1 eigenvalues not converged
     c_bands:  2 eigenvalues not converged
     c_bands:  2 eigenvalues not converged
     c_bands:  4 eigenvalues not converged
     c_bands:  3 eigenvalues not converged
     c_bands:  4 eigenvalues not converged
     c_bands:  2 eigenvalues not converged
     c_bands:  4 eigenvalues not converged
     ethr =  5.42E-03,  avg # of iterations =  6.7

     negative rho (up, down):  9.201E+02 0.000E+00

     total cpu time spent up to now is     6313.3 secs

     total energy              =  -17201.98524651 Ry
     Harris-Foulkes estimate   =  -17182.49715975 Ry
     estimated scf accuracy    <   25768.37013967 Ry

     iteration # 84     ecut=    60.00 Ry     beta= 0.50
     CG style diagonalization
     c_bands:  3 eigenvalues not converged
     c_bands:  2 eigenvalues not converged
     c_bands:  2 eigenvalues not converged
     c_bands:  2 eigenvalues not converged
     c_bands:  4 eigenvalues not converged
     c_bands:  1 eigenvalues not converged
     c_bands:  1 eigenvalues not converged
     ethr =  5.42E-03,  avg # of iterations =  4.7

     negative rho (up, down):  9.176E+02 0.000E+00

     total cpu time spent up to now is     6337.9 secs

     total energy              =  -17157.96552012 Ry
     Harris-Foulkes estimate   =  -17212.67865270 Ry
     estimated scf accuracy    <   22227.00369619 Ry

     iteration # 85     ecut=    60.00 Ry     beta= 0.50
     CG style diagonalization
     c_bands:  1 eigenvalues not converged
     c_bands:  1 eigenvalues not converged
     c_bands:  1 eigenvalues not converged
     c_bands:  1 eigenvalues not converged
     c_bands:  2 eigenvalues not converged
     c_bands:  2 eigenvalues not converged
     c_bands:  1 eigenvalues not converged
     c_bands:  1 eigenvalues not converged
     ethr =  5.42E-03,  avg # of iterations =  3.8

     negative rho (up, down):  9.170E+02 0.000E+00

     total cpu time spent up to now is     6356.5 secs

     total energy              =  -17051.51047413 Ry
     Harris-Foulkes estimate   =  -17170.59500115 Ry
     estimated scf accuracy    <   70583.68113006 Ry

     iteration # 86     ecut=    60.00 Ry     beta= 0.50
     CG style diagonalization
     c_bands:  1 eigenvalues not converged
     c_bands:  1 eigenvalues not converged
     c_bands:  1 eigenvalues not converged
     c_bands:  1 eigenvalues not converged
     c_bands:  2 eigenvalues not converged
     c_bands:  1 eigenvalues not converged
     c_bands:  1 eigenvalues not converged
     c_bands:  1 eigenvalues not converged
     ethr =  5.42E-03,  avg # of iterations =  3.4

     negative rho (up, down):  9.168E+02 0.000E+00

     total cpu time spent up to now is     6373.1 secs

     total energy              =  -17056.63510802 Ry
     Harris-Foulkes estimate   =  -17111.74826074 Ry
     estimated scf accuracy    <    6091.69862335 Ry

     iteration # 87     ecut=    60.00 Ry     beta= 0.50
     CG style diagonalization
     c_bands:  1 eigenvalues not converged
     c_bands:  1 eigenvalues not converged
     c_bands:  1 eigenvalues not converged
     c_bands:  1 eigenvalues not converged
     c_bands:  1 eigenvalues not converged
     c_bands:  1 eigenvalues not converged
     ethr =  5.42E-03,  avg # of iterations =  3.5

     negative rho (up, down):  9.157E+02 0.000E+00

     total cpu time spent up to now is     6390.0 secs

     total energy              =  -16971.60035838 Ry
     Harris-Foulkes estimate   =  -17059.79159017 Ry
     estimated scf accuracy    <    3388.53167361 Ry

     iteration # 88     ecut=    60.00 Ry     beta= 0.50
     CG style diagonalization
     c_bands:  4 eigenvalues not converged
     c_bands:  3 eigenvalues not converged
     c_bands:  5 eigenvalues not converged
     c_bands:  1 eigenvalues not converged
     c_bands:  3 eigenvalues not converged
     c_bands:  4 eigenvalues not converged
     c_bands:  5 eigenvalues not converged
     c_bands:  2 eigenvalues not converged
     ethr =  5.42E-03,  avg # of iterations = 14.3

     negative rho (up, down):  9.166E+02 0.000E+00

     total cpu time spent up to now is     6463.9 secs

     total energy              =  -17005.30204857 Ry
     Harris-Foulkes estimate   =  -17041.02131858 Ry
     estimated scf accuracy    <  100760.23665855 Ry

     iteration # 89     ecut=    60.00 Ry     beta= 0.50
     CG style diagonalization
     c_bands:  2 eigenvalues not converged
     c_bands:  3 eigenvalues not converged
     c_bands:  4 eigenvalues not converged
     c_bands:  1 eigenvalues not converged
     c_bands:  1 eigenvalues not converged
     c_bands:  1 eigenvalues not converged
     c_bands:  1 eigenvalues not converged
     c_bands:  4 eigenvalues not converged
     ethr =  5.42E-03,  avg # of iterations =  4.1

     negative rho (up, down):  9.172E+02 0.000E+00

     total cpu time spent up to now is     6484.8 secs

     total energy              =  -17158.93321805 Ry
     Harris-Foulkes estimate   =  -17013.38861055 Ry
     estimated scf accuracy    <   61078.72097301 Ry

     iteration # 90     ecut=    60.00 Ry     beta= 0.50
     CG style diagonalization
     c_bands:  5 eigenvalues not converged
     c_bands:  1 eigenvalues not converged
     c_bands:  5 eigenvalues not converged
     c_bands:  5 eigenvalues not converged
     c_bands:  1 eigenvalues not converged
     c_bands:  4 eigenvalues not converged
     c_bands:  3 eigenvalues not converged
     c_bands:  3 eigenvalues not converged
     ethr =  5.42E-03,  avg # of iterations = 30.4

     negative rho (up, down):  9.172E+02 0.000E+00

     total cpu time spent up to now is     6653.9 secs

     total energy              =  -17321.07224298 Ry
     Harris-Foulkes estimate   =  -17552.75647440 Ry
     estimated scf accuracy    <  142996.61979428 Ry

     iteration # 91     ecut=    60.00 Ry     beta= 0.50
     CG style diagonalization
     c_bands:  5 eigenvalues not converged
     c_bands:  2 eigenvalues not converged
     c_bands:  5 eigenvalues not converged
     c_bands:  5 eigenvalues not converged
     c_bands:  3 eigenvalues not converged
     c_bands:  3 eigenvalues not converged
     c_bands:  4 eigenvalues not converged
     c_bands:  5 eigenvalues not converged
     ethr =  5.42E-03,  avg # of iterations =  4.5

     negative rho (up, down):  9.149E+02 0.000E+00

     total cpu time spent up to now is     6677.0 secs

     total energy              =  -17192.49535229 Ry
     Harris-Foulkes estimate   =  -17332.16655146 Ry
     estimated scf accuracy    <  140231.28737449 Ry

     iteration # 92     ecut=    60.00 Ry     beta= 0.50
     CG style diagonalization
     c_bands:  3 eigenvalues not converged
     c_bands:  2 eigenvalues not converged
     c_bands:  1 eigenvalues not converged
     c_bands:  2 eigenvalues not converged
     c_bands:  1 eigenvalues not converged
     c_bands:  4 eigenvalues not converged
     c_bands:  4 eigenvalues not converged
     c_bands:  2 eigenvalues not converged
     ethr =  5.42E-03,  avg # of iterations =  4.6

     negative rho (up, down):  9.146E+02 0.000E+00

     total cpu time spent up to now is     6700.6 secs

     total energy              =  -17190.45620033 Ry
     Harris-Foulkes estimate   =  -17199.92015388 Ry
     estimated scf accuracy    <  126311.65781136 Ry

     iteration # 93     ecut=    60.00 Ry     beta= 0.50
     CG style diagonalization
     c_bands:  1 eigenvalues not converged
     c_bands:  1 eigenvalues not converged
     c_bands:  2 eigenvalues not converged
     ethr =  5.42E-03,  avg # of iterations =  3.9

     negative rho (up, down):  9.142E+02 0.000E+00

     total cpu time spent up to now is     6720.4 secs

     total energy              =  -17167.26728867 Ry
     Harris-Foulkes estimate   =  -17196.72842118 Ry
     estimated scf accuracy    <  142216.89819216 Ry

     iteration # 94     ecut=    60.00 Ry     beta= 0.50
     CG style diagonalization
     c_bands:  2 eigenvalues not converged
     c_bands:  1 eigenvalues not converged
     c_bands:  1 eigenvalues not converged
     c_bands:  1 eigenvalues not converged
     c_bands:  2 eigenvalues not converged
     c_bands:  1 eigenvalues not converged
     ethr =  5.42E-03,  avg # of iterations =  3.7

     negative rho (up, down):  9.148E+02 0.000E+00

     total cpu time spent up to now is     6738.9 secs

     total energy              =  -16902.64675312 Ry
     Harris-Foulkes estimate   =  -17169.94711781 Ry
     estimated scf accuracy    <  143775.00458547 Ry

     iteration # 95     ecut=    60.00 Ry     beta= 0.50
     CG style diagonalization
     c_bands:  3 eigenvalues not converged
     c_bands:  5 eigenvalues not converged
     c_bands:  1 eigenvalues not converged
     c_bands:  2 eigenvalues not converged
     c_bands:  1 eigenvalues not converged
     c_bands:  3 eigenvalues not converged
     c_bands:  4 eigenvalues not converged
     ethr =  5.42E-03,  avg # of iterations = 36.1

     negative rho (up, down):  9.148E+02 0.000E+00

     total cpu time spent up to now is     6936.5 secs

     total energy              =  -17194.32586618 Ry
     Harris-Foulkes estimate   =  -17215.75919562 Ry
     estimated scf accuracy    <  138793.90402688 Ry

     iteration # 96     ecut=    60.00 Ry     beta= 0.50
     CG style diagonalization
     c_bands:  1 eigenvalues not converged
     c_bands:  1 eigenvalues not converged
     ethr =  5.42E-03,  avg # of iterations =  3.5

     negative rho (up, down):  9.186E+02 0.000E+00

     total cpu time spent up to now is     6953.8 secs

     total energy              =  -17741.06542204 Ry
     Harris-Foulkes estimate   =  -17196.84231726 Ry
     estimated scf accuracy    <  138367.15809881 Ry

     iteration # 97     ecut=    60.00 Ry     beta= 0.50
     CG style diagonalization
     c_bands:  3 eigenvalues not converged
     c_bands:  2 eigenvalues not converged
     c_bands:  5 eigenvalues not converged
     c_bands:  1 eigenvalues not converged
     c_bands:  5 eigenvalues not converged
     c_bands:  1 eigenvalues not converged
     ethr =  5.42E-03,  avg # of iterations = 24.2

     negative rho (up, down):  9.321E+02 0.000E+00

     total cpu time spent up to now is     7087.8 secs

     total energy              =  -17156.50391011 Ry
     Harris-Foulkes estimate   =  -17932.52318309 Ry
     estimated scf accuracy    <  137972.11224134 Ry

     iteration # 98     ecut=    60.00 Ry     beta= 0.50
     CG style diagonalization
     c_bands:  3 eigenvalues not converged
     c_bands:  1 eigenvalues not converged
     c_bands:  2 eigenvalues not converged
     c_bands:  2 eigenvalues not converged
     c_bands:  1 eigenvalues not converged
     c_bands:  4 eigenvalues not converged
     c_bands:  4 eigenvalues not converged
     c_bands:  1 eigenvalues not converged
     ethr =  5.42E-03,  avg # of iterations = 60.9

     negative rho (up, down):  1.069E+03 0.000E+00

     total cpu time spent up to now is     7427.5 secs

     total energy              =  -36141.96216506 Ry
     Harris-Foulkes estimate   =  -20139.56263712 Ry
     estimated scf accuracy    <  158446.16024435 Ry

     iteration # 99     ecut=    60.00 Ry     beta= 0.50
     CG style diagonalization
     c_bands: 16 eigenvalues not converged
     c_bands: 19 eigenvalues not converged
     c_bands: 17 eigenvalues not converged
     c_bands: 20 eigenvalues not converged
     c_bands: 13 eigenvalues not converged
     c_bands: 19 eigenvalues not converged
     c_bands: 14 eigenvalues not converged
     c_bands: 17 eigenvalues not converged
     ethr =  5.42E-03,  avg # of iterations = 88.0

     negative rho (up, down):  9.958E+02 0.000E+00

     total cpu time spent up to now is     7919.6 secs

     total energy              =  -26795.44527270 Ry
     Harris-Foulkes estimate   =  -38036.69908494 Ry
     estimated scf accuracy    <  199022.22174437 Ry

     iteration #100     ecut=    60.00 Ry     beta= 0.50
     CG style diagonalization
     c_bands:  1 eigenvalues not converged
     c_bands:  2 eigenvalues not converged
     c_bands:  3 eigenvalues not converged
     c_bands:  1 eigenvalues not converged
     c_bands:  2 eigenvalues not converged
     c_bands:  4 eigenvalues not converged
     ethr =  5.42E-03,  avg # of iterations = 45.6

     negative rho (up, down):  1.324E+03 0.000E+00

     total cpu time spent up to now is     8168.6 secs

     total energy              =  -24817.22041639 Ry
     Harris-Foulkes estimate   =  -27177.60253921 Ry
     estimated scf accuracy    <  181232.32136634 Ry

     End of self-consistent calculation

     convergence NOT achieved after 100 iterations: stopping

     Writing output data file CsSnI3.save/
 
     init_run     :      2.54s CPU      3.05s WALL (       1 calls)
     electrons    :   7991.88s CPU   8158.88s WALL (       1 calls)

     Called by init_run:
     wfcinit      :      1.05s CPU      1.21s WALL (       1 calls)
     wfcinit:atom :      0.01s CPU      0.01s WALL (       8 calls)
     wfcinit:wfcr :      0.97s CPU      1.10s WALL (       8 calls)
     potinit      :      0.54s CPU      0.63s WALL (       1 calls)
     hinit0       :      0.62s CPU      0.73s WALL (       1 calls)

     Called by electrons:
     c_bands      :   7890.38s CPU   8046.48s WALL (     100 calls)
     sum_band     :     56.58s CPU     62.90s WALL (     100 calls)
     v_of_rho     :      1.47s CPU      1.63s WALL (     101 calls)
     v_h          :      0.12s CPU      0.12s WALL (     101 calls)
     v_xc         :      1.35s CPU      1.50s WALL (     101 calls)
     newd         :     17.20s CPU     20.69s WALL (     101 calls)
     PAW_pot      :     25.66s CPU     26.49s WALL (     101 calls)
     mix_rho      :      0.83s CPU      0.91s WALL (     100 calls)

     Called by c_bands:
     init_us_2    :      6.41s CPU      6.54s WALL (    1608 calls)
     ccgdiagg     :   7748.67s CPU   7900.81s WALL (    1451 calls)
     wfcrot       :    137.78s CPU    141.59s WALL (    1451 calls)

     Called by sum_band:
     sum_band:bec :      0.39s CPU      0.40s WALL (     800 calls)
     addusdens    :     19.42s CPU     24.76s WALL (     100 calls)

     Called by *cgdiagg:
     h_psi        :   3624.16s CPU   3694.90s WALL (  902166 calls)
     s_psi        :   2460.81s CPU   2494.64s WALL ( 1802881 calls)
     cdiaghg      :      6.75s CPU      7.47s WALL (    1451 calls)
     cdiaghg:chol :      0.42s CPU      0.45s WALL (    1451 calls)
     cdiaghg:inve :      0.23s CPU      0.24s WALL (    1451 calls)
     cdiaghg:para :      0.37s CPU      0.40s WALL (    2902 calls)

     Called by h_psi:
     h_psi:pot    :   3612.32s CPU   3683.63s WALL (  902166 calls)
     h_psi:calbec :   1517.60s CPU   1551.83s WALL (  902166 calls)
     vloc_psi     :    775.63s CPU    794.28s WALL (  902166 calls)
     add_vuspsi   :   1315.83s CPU   1332.19s WALL (  902166 calls)
     hs_1psi      :   4752.02s CPU   4839.43s WALL (  900715 calls)
     s_1psi       :   2497.75s CPU   2548.69s WALL (  900715 calls)

     General routines
     calbec       :   2781.77s CPU   2847.23s WALL ( 1803681 calls)
     fft          :      1.00s CPU      1.07s WALL (    1112 calls)
     ffts         :      0.09s CPU      0.09s WALL (     100 calls)
     fftw         :    686.85s CPU    703.50s WALL ( 2127462 calls)
     davcio       :      0.00s CPU      0.01s WALL (      26 calls)
 
     Parallel routines
     fft_scatt_xy :     72.24s CPU     74.19s WALL ( 2128674 calls)
     fft_scatt_yz :    409.62s CPU    419.63s WALL ( 2128674 calls)

     PAW routines
     PAW_pot      :     25.66s CPU     26.49s WALL (     101 calls)
     PAW_symme    :      0.08s CPU      0.09s WALL (     201 calls)
 
     PWSCF        :      2h13m CPU      2h16m WALL

 
   This run was terminated on:  20:47:40  12Jan2021            

=------------------------------------------------------------------------------=
   JOB DONE.
=------------------------------------------------------------------------------=
