
     Program PWSCF v.6.4.1 starts on 12Jan2021 at 19:22:37 

     This program is part of the open-source Quantum ESPRESSO suite
     for quantum simulation of materials; please cite
         "P. Giannozzi et al., J. Phys.:Condens. Matter 21 395502 (2009);
         "P. Giannozzi et al., J. Phys.:Condens. Matter 29 465901 (2017);
          URL http://www.quantum-espresso.org", 
     in publications or presentations arising from this work. More details at
     http://www.quantum-espresso.org/quote

     Parallel version (MPI & OpenMP), running on      48 processor cores
     Number of MPI processes:                48
     Threads/MPI process:                     1

     MPI processes distributed on     1 nodes
     R & G space division:  proc/nbgrp/npool/nimage =      48
     Waiting for input...
     Reading input from standard input

     Current dimensions of program PWSCF are:
     Max number of different atomic species (ntypx) = 10
     Max number of k-points (npk) =  40000
     Max angular momentum in pseudopotentials (lmaxx) =  3
               file Cs.pbe-spn-kjpaw_psl.1.0.0.UPF: wavefunction(s)  5S 6S renormalized
               file I.pbe-n-kjpaw_psl.1.0.0.UPF: wavefunction(s)  5S renormalized

     Subspace diagonalization in iterative solution of the eigenvalue problem:
     one sub-group per band group will be used
     scalapack distributed-memory algorithm (size of sub-group:  4*  4 procs)

     Message from routine setup:
     DEPRECATED: symmetry with ibrav=0, use correct ibrav instead
 
     Parallelization info
     --------------------
     sticks:   dense  smooth     PW     G-vecs:    dense   smooth      PW
     Min          30      30      9                  892      892     138
     Max          31      31     11                  897      897     143
     Sum        1481    1481    437                43003    43003    6763
 

     Title: 
     CsIrsalt                                                                   


     bravais-lattice index     =            0
     lattice parameter (alat)  =       8.8160  a.u.
     unit-cell volume          =     685.1896 (a.u.)^3
     number of atoms/cell      =            2
     number of atomic types    =            2
     number of electrons       =        16.00
     number of Kohn-Sham states=            8
     kinetic-energy cutoff     =      60.0000  Ry
     charge density cutoff     =     240.0000  Ry
     convergence threshold     =      1.0E-06
     mixing beta               =       0.5000
     number of iterations used =            8  plain     mixing
     Exchange-correlation      = SLA PW PBX PBC ( 1  4  3  4 0 0)
     nstep                     =           50


     celldm(1)=   8.815973  celldm(2)=   0.000000  celldm(3)=   0.000000
     celldm(4)=   0.000000  celldm(5)=   0.000000  celldm(6)=   0.000000

     crystal axes: (cart. coord. in units of alat)
               a(1) = (   1.000000   0.000000   0.000000 )  
               a(2) = (   0.000000   1.000000   0.000000 )  
               a(3) = (   0.000000   0.000000   1.000000 )  

     reciprocal axes: (cart. coord. in units 2 pi/alat)
               b(1) = (  1.000000  0.000000  0.000000 )  
               b(2) = (  0.000000  1.000000  0.000000 )  
               b(3) = (  0.000000  0.000000  1.000000 )  


     PseudoPot. # 1 for Cs read from file:
     ../../../pseudo/Cs.pbe-spn-kjpaw_psl.1.0.0.UPF
     MD5 check sum: b82c75cc2e1f4ff73b6412cffeb9c584
     Pseudo is Projector augmented-wave + core cor, Zval =  9.0
     Generated using "atomic" code by A. Dal Corso v.6.4.1
     Shape of augmentation charge: PSQ
     Using radial grid of 1251 points,  9 beta functions with: 
                l(1) =   0
                l(2) =   0
                l(3) =   0
                l(4) =   1
                l(5) =   1
                l(6) =   2
                l(7) =   2
                l(8) =   3
                l(9) =   3
     Q(r) pseudized with 0 coefficients 


     PseudoPot. # 2 for I  read from file:
     ../../../pseudo/I.pbe-n-kjpaw_psl.1.0.0.UPF
     MD5 check sum: cd3d296c3308a581e1559a0c8a554cb5
     Pseudo is Projector augmented-wave + core cor, Zval =  7.0
     Generated using "atomic" code by A. Dal Corso v.6.3
     Shape of augmentation charge: PSQ
     Using radial grid of 1247 points,  6 beta functions with: 
                l(1) =   0
                l(2) =   0
                l(3) =   1
                l(4) =   1
                l(5) =   2
                l(6) =   2
     Q(r) pseudized with 0 coefficients 


     atomic species   valence    mass     pseudopotential
        Cs             9.00   132.90000     Cs( 1.00)
        I              7.00   126.90000     I ( 1.00)

     48 Sym. Ops., with inversion, found


                                    s                        frac. trans.

      isym =  1     identity                                     

 cryst.   s( 1) = (     1          0          0      )
                  (     0          1          0      )
                  (     0          0          1      )

 cart.    s( 1) = (  1.0000000  0.0000000  0.0000000 )
                  (  0.0000000  1.0000000  0.0000000 )
                  (  0.0000000  0.0000000  1.0000000 )


      isym =  2     180 deg rotation - cart. axis [0,0,1]        

 cryst.   s( 2) = (    -1          0          0      )
                  (     0         -1          0      )
                  (     0          0          1      )

 cart.    s( 2) = ( -1.0000000  0.0000000  0.0000000 )
                  (  0.0000000 -1.0000000  0.0000000 )
                  (  0.0000000  0.0000000  1.0000000 )


      isym =  3     180 deg rotation - cart. axis [0,1,0]        

 cryst.   s( 3) = (    -1          0          0      )
                  (     0          1          0      )
                  (     0          0         -1      )

 cart.    s( 3) = ( -1.0000000  0.0000000  0.0000000 )
                  (  0.0000000  1.0000000  0.0000000 )
                  (  0.0000000  0.0000000 -1.0000000 )


      isym =  4     180 deg rotation - cart. axis [1,0,0]        

 cryst.   s( 4) = (     1          0          0      )
                  (     0         -1          0      )
                  (     0          0         -1      )

 cart.    s( 4) = (  1.0000000  0.0000000  0.0000000 )
                  (  0.0000000 -1.0000000  0.0000000 )
                  (  0.0000000  0.0000000 -1.0000000 )


      isym =  5     180 deg rotation - cart. axis [1,1,0]        

 cryst.   s( 5) = (     0          1          0      )
                  (     1          0          0      )
                  (     0          0         -1      )

 cart.    s( 5) = (  0.0000000  1.0000000  0.0000000 )
                  (  1.0000000  0.0000000  0.0000000 )
                  (  0.0000000  0.0000000 -1.0000000 )


      isym =  6     180 deg rotation - cart. axis [1,-1,0]       

 cryst.   s( 6) = (     0         -1          0      )
                  (    -1          0          0      )
                  (     0          0         -1      )

 cart.    s( 6) = (  0.0000000 -1.0000000  0.0000000 )
                  ( -1.0000000  0.0000000  0.0000000 )
                  (  0.0000000  0.0000000 -1.0000000 )


      isym =  7      90 deg rotation - cart. axis [0,0,-1]       

 cryst.   s( 7) = (     0         -1          0      )
                  (     1          0          0      )
                  (     0          0          1      )

 cart.    s( 7) = (  0.0000000  1.0000000  0.0000000 )
                  ( -1.0000000  0.0000000  0.0000000 )
                  (  0.0000000  0.0000000  1.0000000 )


      isym =  8      90 deg rotation - cart. axis [0,0,1]        

 cryst.   s( 8) = (     0          1          0      )
                  (    -1          0          0      )
                  (     0          0          1      )

 cart.    s( 8) = (  0.0000000 -1.0000000  0.0000000 )
                  (  1.0000000  0.0000000  0.0000000 )
                  (  0.0000000  0.0000000  1.0000000 )


      isym =  9     180 deg rotation - cart. axis [1,0,1]        

 cryst.   s( 9) = (     0          0          1      )
                  (     0         -1          0      )
                  (     1          0          0      )

 cart.    s( 9) = (  0.0000000  0.0000000  1.0000000 )
                  (  0.0000000 -1.0000000  0.0000000 )
                  (  1.0000000  0.0000000  0.0000000 )


      isym = 10     180 deg rotation - cart. axis [-1,0,1]       

 cryst.   s(10) = (     0          0         -1      )
                  (     0         -1          0      )
                  (    -1          0          0      )

 cart.    s(10) = (  0.0000000  0.0000000 -1.0000000 )
                  (  0.0000000 -1.0000000  0.0000000 )
                  ( -1.0000000  0.0000000  0.0000000 )


      isym = 11      90 deg rotation - cart. axis [0,1,0]        

 cryst.   s(11) = (     0          0         -1      )
                  (     0          1          0      )
                  (     1          0          0      )

 cart.    s(11) = (  0.0000000  0.0000000  1.0000000 )
                  (  0.0000000  1.0000000  0.0000000 )
                  ( -1.0000000  0.0000000  0.0000000 )


      isym = 12      90 deg rotation - cart. axis [0,-1,0]       

 cryst.   s(12) = (     0          0          1      )
                  (     0          1          0      )
                  (    -1          0          0      )

 cart.    s(12) = (  0.0000000  0.0000000 -1.0000000 )
                  (  0.0000000  1.0000000  0.0000000 )
                  (  1.0000000  0.0000000  0.0000000 )


      isym = 13     180 deg rotation - cart. axis [0,1,1]        

 cryst.   s(13) = (    -1          0          0      )
                  (     0          0          1      )
                  (     0          1          0      )

 cart.    s(13) = ( -1.0000000  0.0000000  0.0000000 )
                  (  0.0000000  0.0000000  1.0000000 )
                  (  0.0000000  1.0000000  0.0000000 )


      isym = 14     180 deg rotation - cart. axis [0,1,-1]       

 cryst.   s(14) = (    -1          0          0      )
                  (     0          0         -1      )
                  (     0         -1          0      )

 cart.    s(14) = ( -1.0000000  0.0000000  0.0000000 )
                  (  0.0000000  0.0000000 -1.0000000 )
                  (  0.0000000 -1.0000000  0.0000000 )


      isym = 15      90 deg rotation - cart. axis [-1,0,0]       

 cryst.   s(15) = (     1          0          0      )
                  (     0          0         -1      )
                  (     0          1          0      )

 cart.    s(15) = (  1.0000000  0.0000000  0.0000000 )
                  (  0.0000000  0.0000000  1.0000000 )
                  (  0.0000000 -1.0000000  0.0000000 )


      isym = 16      90 deg rotation - cart. axis [1,0,0]        

 cryst.   s(16) = (     1          0          0      )
                  (     0          0          1      )
                  (     0         -1          0      )

 cart.    s(16) = (  1.0000000  0.0000000  0.0000000 )
                  (  0.0000000  0.0000000 -1.0000000 )
                  (  0.0000000  1.0000000  0.0000000 )


      isym = 17     120 deg rotation - cart. axis [-1,-1,-1]     

 cryst.   s(17) = (     0          0          1      )
                  (     1          0          0      )
                  (     0          1          0      )

 cart.    s(17) = (  0.0000000  1.0000000  0.0000000 )
                  (  0.0000000  0.0000000  1.0000000 )
                  (  1.0000000  0.0000000  0.0000000 )


      isym = 18     120 deg rotation - cart. axis [-1,1,1]       

 cryst.   s(18) = (     0          0         -1      )
                  (    -1          0          0      )
                  (     0          1          0      )

 cart.    s(18) = (  0.0000000 -1.0000000  0.0000000 )
                  (  0.0000000  0.0000000  1.0000000 )
                  ( -1.0000000  0.0000000  0.0000000 )


      isym = 19     120 deg rotation - cart. axis [1,1,-1]       

 cryst.   s(19) = (     0          0         -1      )
                  (     1          0          0      )
                  (     0         -1          0      )

 cart.    s(19) = (  0.0000000  1.0000000  0.0000000 )
                  (  0.0000000  0.0000000 -1.0000000 )
                  ( -1.0000000  0.0000000  0.0000000 )


      isym = 20     120 deg rotation - cart. axis [1,-1,1]       

 cryst.   s(20) = (     0          0          1      )
                  (    -1          0          0      )
                  (     0         -1          0      )

 cart.    s(20) = (  0.0000000 -1.0000000  0.0000000 )
                  (  0.0000000  0.0000000 -1.0000000 )
                  (  1.0000000  0.0000000  0.0000000 )


      isym = 21     120 deg rotation - cart. axis [1,1,1]        

 cryst.   s(21) = (     0          1          0      )
                  (     0          0          1      )
                  (     1          0          0      )

 cart.    s(21) = (  0.0000000  0.0000000  1.0000000 )
                  (  1.0000000  0.0000000  0.0000000 )
                  (  0.0000000  1.0000000  0.0000000 )


      isym = 22     120 deg rotation - cart. axis [-1,1,-1]      

 cryst.   s(22) = (     0         -1          0      )
                  (     0          0         -1      )
                  (     1          0          0      )

 cart.    s(22) = (  0.0000000  0.0000000  1.0000000 )
                  ( -1.0000000  0.0000000  0.0000000 )
                  (  0.0000000 -1.0000000  0.0000000 )


      isym = 23     120 deg rotation - cart. axis [1,-1,-1]      

 cryst.   s(23) = (     0         -1          0      )
                  (     0          0          1      )
                  (    -1          0          0      )

 cart.    s(23) = (  0.0000000  0.0000000 -1.0000000 )
                  ( -1.0000000  0.0000000  0.0000000 )
                  (  0.0000000  1.0000000  0.0000000 )


      isym = 24     120 deg rotation - cart. axis [-1,-1,1]      

 cryst.   s(24) = (     0          1          0      )
                  (     0          0         -1      )
                  (    -1          0          0      )

 cart.    s(24) = (  0.0000000  0.0000000 -1.0000000 )
                  (  1.0000000  0.0000000  0.0000000 )
                  (  0.0000000 -1.0000000  0.0000000 )


      isym = 25     inversion                                    

 cryst.   s(25) = (    -1          0          0      )
                  (     0         -1          0      )
                  (     0          0         -1      )

 cart.    s(25) = ( -1.0000000  0.0000000  0.0000000 )
                  (  0.0000000 -1.0000000  0.0000000 )
                  (  0.0000000  0.0000000 -1.0000000 )


      isym = 26     inv. 180 deg rotation - cart. axis [0,0,1]   

 cryst.   s(26) = (     1          0          0      )
                  (     0          1          0      )
                  (     0          0         -1      )

 cart.    s(26) = (  1.0000000  0.0000000  0.0000000 )
                  (  0.0000000  1.0000000  0.0000000 )
                  (  0.0000000  0.0000000 -1.0000000 )


      isym = 27     inv. 180 deg rotation - cart. axis [0,1,0]   

 cryst.   s(27) = (     1          0          0      )
                  (     0         -1          0      )
                  (     0          0          1      )

 cart.    s(27) = (  1.0000000  0.0000000  0.0000000 )
                  (  0.0000000 -1.0000000  0.0000000 )
                  (  0.0000000  0.0000000  1.0000000 )


      isym = 28     inv. 180 deg rotation - cart. axis [1,0,0]   

 cryst.   s(28) = (    -1          0          0      )
                  (     0          1          0      )
                  (     0          0          1      )

 cart.    s(28) = ( -1.0000000  0.0000000  0.0000000 )
                  (  0.0000000  1.0000000  0.0000000 )
                  (  0.0000000  0.0000000  1.0000000 )


      isym = 29     inv. 180 deg rotation - cart. axis [1,1,0]   

 cryst.   s(29) = (     0         -1          0      )
                  (    -1          0          0      )
                  (     0          0          1      )

 cart.    s(29) = (  0.0000000 -1.0000000  0.0000000 )
                  ( -1.0000000  0.0000000  0.0000000 )
                  (  0.0000000  0.0000000  1.0000000 )


      isym = 30     inv. 180 deg rotation - cart. axis [1,-1,0]  

 cryst.   s(30) = (     0          1          0      )
                  (     1          0          0      )
                  (     0          0          1      )

 cart.    s(30) = (  0.0000000  1.0000000  0.0000000 )
                  (  1.0000000  0.0000000  0.0000000 )
                  (  0.0000000  0.0000000  1.0000000 )


      isym = 31     inv.  90 deg rotation - cart. axis [0,0,-1]  

 cryst.   s(31) = (     0          1          0      )
                  (    -1          0          0      )
                  (     0          0         -1      )

 cart.    s(31) = (  0.0000000 -1.0000000  0.0000000 )
                  (  1.0000000  0.0000000  0.0000000 )
                  (  0.0000000  0.0000000 -1.0000000 )


      isym = 32     inv.  90 deg rotation - cart. axis [0,0,1]   

 cryst.   s(32) = (     0         -1          0      )
                  (     1          0          0      )
                  (     0          0         -1      )

 cart.    s(32) = (  0.0000000  1.0000000  0.0000000 )
                  ( -1.0000000  0.0000000  0.0000000 )
                  (  0.0000000  0.0000000 -1.0000000 )


      isym = 33     inv. 180 deg rotation - cart. axis [1,0,1]   

 cryst.   s(33) = (     0          0         -1      )
                  (     0          1          0      )
                  (    -1          0          0      )

 cart.    s(33) = (  0.0000000  0.0000000 -1.0000000 )
                  (  0.0000000  1.0000000  0.0000000 )
                  ( -1.0000000  0.0000000  0.0000000 )


      isym = 34     inv. 180 deg rotation - cart. axis [-1,0,1]  

 cryst.   s(34) = (     0          0          1      )
                  (     0          1          0      )
                  (     1          0          0      )

 cart.    s(34) = (  0.0000000  0.0000000  1.0000000 )
                  (  0.0000000  1.0000000  0.0000000 )
                  (  1.0000000  0.0000000  0.0000000 )


      isym = 35     inv.  90 deg rotation - cart. axis [0,1,0]   

 cryst.   s(35) = (     0          0          1      )
                  (     0         -1          0      )
                  (    -1          0          0      )

 cart.    s(35) = (  0.0000000  0.0000000 -1.0000000 )
                  (  0.0000000 -1.0000000  0.0000000 )
                  (  1.0000000  0.0000000  0.0000000 )


      isym = 36     inv.  90 deg rotation - cart. axis [0,-1,0]  

 cryst.   s(36) = (     0          0         -1      )
                  (     0         -1          0      )
                  (     1          0          0      )

 cart.    s(36) = (  0.0000000  0.0000000  1.0000000 )
                  (  0.0000000 -1.0000000  0.0000000 )
                  ( -1.0000000  0.0000000  0.0000000 )


      isym = 37     inv. 180 deg rotation - cart. axis [0,1,1]   

 cryst.   s(37) = (     1          0          0      )
                  (     0          0         -1      )
                  (     0         -1          0      )

 cart.    s(37) = (  1.0000000  0.0000000  0.0000000 )
                  (  0.0000000  0.0000000 -1.0000000 )
                  (  0.0000000 -1.0000000  0.0000000 )


      isym = 38     inv. 180 deg rotation - cart. axis [0,1,-1]  

 cryst.   s(38) = (     1          0          0      )
                  (     0          0          1      )
                  (     0          1          0      )

 cart.    s(38) = (  1.0000000  0.0000000  0.0000000 )
                  (  0.0000000  0.0000000  1.0000000 )
                  (  0.0000000  1.0000000  0.0000000 )


      isym = 39     inv.  90 deg rotation - cart. axis [-1,0,0]  

 cryst.   s(39) = (    -1          0          0      )
                  (     0          0          1      )
                  (     0         -1          0      )

 cart.    s(39) = ( -1.0000000  0.0000000  0.0000000 )
                  (  0.0000000  0.0000000 -1.0000000 )
                  (  0.0000000  1.0000000  0.0000000 )


      isym = 40     inv.  90 deg rotation - cart. axis [1,0,0]   

 cryst.   s(40) = (    -1          0          0      )
                  (     0          0         -1      )
                  (     0          1          0      )

 cart.    s(40) = ( -1.0000000  0.0000000  0.0000000 )
                  (  0.0000000  0.0000000  1.0000000 )
                  (  0.0000000 -1.0000000  0.0000000 )


      isym = 41     inv. 120 deg rotation - cart. axis [-1,-1,-1]

 cryst.   s(41) = (     0          0         -1      )
                  (    -1          0          0      )
                  (     0         -1          0      )

 cart.    s(41) = (  0.0000000 -1.0000000  0.0000000 )
                  (  0.0000000  0.0000000 -1.0000000 )
                  ( -1.0000000  0.0000000  0.0000000 )


      isym = 42     inv. 120 deg rotation - cart. axis [-1,1,1]  

 cryst.   s(42) = (     0          0          1      )
                  (     1          0          0      )
                  (     0         -1          0      )

 cart.    s(42) = (  0.0000000  1.0000000  0.0000000 )
                  (  0.0000000  0.0000000 -1.0000000 )
                  (  1.0000000  0.0000000  0.0000000 )


      isym = 43     inv. 120 deg rotation - cart. axis [1,1,-1]  

 cryst.   s(43) = (     0          0          1      )
                  (    -1          0          0      )
                  (     0          1          0      )

 cart.    s(43) = (  0.0000000 -1.0000000  0.0000000 )
                  (  0.0000000  0.0000000  1.0000000 )
                  (  1.0000000  0.0000000  0.0000000 )


      isym = 44     inv. 120 deg rotation - cart. axis [1,-1,1]  

 cryst.   s(44) = (     0          0         -1      )
                  (     1          0          0      )
                  (     0          1          0      )

 cart.    s(44) = (  0.0000000  1.0000000  0.0000000 )
                  (  0.0000000  0.0000000  1.0000000 )
                  ( -1.0000000  0.0000000  0.0000000 )


      isym = 45     inv. 120 deg rotation - cart. axis [1,1,1]   

 cryst.   s(45) = (     0         -1          0      )
                  (     0          0         -1      )
                  (    -1          0          0      )

 cart.    s(45) = (  0.0000000  0.0000000 -1.0000000 )
                  ( -1.0000000  0.0000000  0.0000000 )
                  (  0.0000000 -1.0000000  0.0000000 )


      isym = 46     inv. 120 deg rotation - cart. axis [-1,1,-1] 

 cryst.   s(46) = (     0          1          0      )
                  (     0          0          1      )
                  (    -1          0          0      )

 cart.    s(46) = (  0.0000000  0.0000000 -1.0000000 )
                  (  1.0000000  0.0000000  0.0000000 )
                  (  0.0000000  1.0000000  0.0000000 )


      isym = 47     inv. 120 deg rotation - cart. axis [1,-1,-1] 

 cryst.   s(47) = (     0          1          0      )
                  (     0          0         -1      )
                  (     1          0          0      )

 cart.    s(47) = (  0.0000000  0.0000000  1.0000000 )
                  (  1.0000000  0.0000000  0.0000000 )
                  (  0.0000000 -1.0000000  0.0000000 )


      isym = 48     inv. 120 deg rotation - cart. axis [-1,-1,1] 

 cryst.   s(48) = (     0         -1          0      )
                  (     0          0          1      )
                  (     1          0          0      )

 cart.    s(48) = (  0.0000000  0.0000000  1.0000000 )
                  ( -1.0000000  0.0000000  0.0000000 )
                  (  0.0000000  1.0000000  0.0000000 )


   Cartesian axes

     site n.     atom                  positions (alat units)
         1           Cs  tau(   1) = (   0.0000000   0.0000000   0.0000000  )
         2           I   tau(   2) = (   0.5000000   0.5000000   0.5000000  )

   Crystallographic axes

     site n.     atom                  positions (cryst. coord.)
         1           Cs  tau(   1) = (  0.0000000  0.0000000  0.0000000  )
         2           I   tau(   2) = (  0.5000000  0.5000000  0.5000000  )

     number of k points=     4
                       cart. coord. in units 2pi/alat
        k(    1) = (   0.0000000   0.0000000   0.0000000), wk =   0.2500000
        k(    2) = (   0.0000000   0.0000000  -0.5000000), wk =   0.7500000
        k(    3) = (   0.0000000  -0.5000000  -0.5000000), wk =   0.7500000
        k(    4) = (  -0.5000000  -0.5000000  -0.5000000), wk =   0.2500000

                       cryst. coord.
        k(    1) = (   0.0000000   0.0000000   0.0000000), wk =   0.2500000
        k(    2) = (   0.0000000   0.0000000  -0.5000000), wk =   0.7500000
        k(    3) = (   0.0000000  -0.5000000  -0.5000000), wk =   0.7500000
        k(    4) = (  -0.5000000  -0.5000000  -0.5000000), wk =   0.2500000

     Dense  grid:    43003 G-vectors     FFT dimensions: (  45,  45,  45)

     Dynamical RAM for                 wfc:       0.01 MB

     Dynamical RAM for     wfc (w. buffer):       0.07 MB

     Dynamical RAM for           str. fact:       0.03 MB

     Dynamical RAM for           local pot:       0.00 MB

     Dynamical RAM for          nlocal pot:       0.09 MB

     Dynamical RAM for                qrad:      20.93 MB

     Dynamical RAM for          rho,v,vnew:       0.09 MB

     Dynamical RAM for               rhoin:       0.03 MB

     Dynamical RAM for            rho*nmix:       0.22 MB

     Dynamical RAM for           G-vectors:       0.06 MB

     Dynamical RAM for          h,s,v(r/c):       0.00 MB

     Dynamical RAM for          <psi|beta>:       0.01 MB

     Dynamical RAM for      wfcinit/wfcrot:       0.03 MB

     Dynamical RAM for           addusdens:       8.06 MB

     Dynamical RAM for          addusforce:       8.14 MB

     Dynamical RAM for         addusstress:       8.42 MB

     Estimated static dynamical RAM per process >      21.63 MB

     Estimated max dynamical RAM per process >      30.04 MB

     Estimated total dynamical RAM >       1.41 GB

     Initial potential from superposition of free atoms

     starting charge   15.96031, renormalised to   16.00000
     Starting wfcs are    9 randomized atomic wfcs
     Checking if some PAW data can be deallocated... 
       PAW data deallocated on   24 nodes for type:  1
       PAW data deallocated on   24 nodes for type:  2

     total cpu time spent up to now is        4.2 secs

     Self-consistent Calculation

     iteration #  1     ecut=    60.00 Ry     beta= 0.50
     CG style diagonalization
     ethr =  1.00E-02,  avg # of iterations =  2.0

     Threshold (ethr) on eigenvalues was too large:
     Diagonalizing with lowered threshold

     CG style diagonalization
     ethr =  4.19E-04,  avg # of iterations =  3.1

     total cpu time spent up to now is        4.7 secs

     total energy              =    -794.86432516 Ry
     Harris-Foulkes estimate   =    -794.89290602 Ry
     estimated scf accuracy    <       0.05276997 Ry

     iteration #  2     ecut=    60.00 Ry     beta= 0.50
     CG style diagonalization
     ethr =  3.30E-04,  avg # of iterations =  4.1

     total cpu time spent up to now is        5.0 secs

     total energy              =    -794.87956625 Ry
     Harris-Foulkes estimate   =    -794.87959250 Ry
     estimated scf accuracy    <       0.00283275 Ry

     iteration #  3     ecut=    60.00 Ry     beta= 0.50
     CG style diagonalization
     ethr =  1.77E-05,  avg # of iterations =  5.5

     total cpu time spent up to now is        5.2 secs

     total energy              =    -794.88533606 Ry
     Harris-Foulkes estimate   =    -794.88631077 Ry
     estimated scf accuracy    <       0.00182379 Ry

     iteration #  4     ecut=    60.00 Ry     beta= 0.50
     CG style diagonalization
     ethr =  1.14E-05,  avg # of iterations =  4.0

     total cpu time spent up to now is        5.5 secs

     total energy              =    -794.88600180 Ry
     Harris-Foulkes estimate   =    -794.88610418 Ry
     estimated scf accuracy    <       0.00030819 Ry

     iteration #  5     ecut=    60.00 Ry     beta= 0.50
     CG style diagonalization
     ethr =  1.93E-06,  avg # of iterations =  4.4

     total cpu time spent up to now is        5.8 secs

     total energy              =    -794.88608946 Ry
     Harris-Foulkes estimate   =    -794.88619748 Ry
     estimated scf accuracy    <       0.00014043 Ry

     iteration #  6     ecut=    60.00 Ry     beta= 0.50
     CG style diagonalization
     ethr =  8.78E-07,  avg # of iterations =  4.6

     total cpu time spent up to now is        6.1 secs

     total energy              =    -794.88619896 Ry
     Harris-Foulkes estimate   =    -794.88619152 Ry
     estimated scf accuracy    <       0.00004506 Ry

     iteration #  7     ecut=    60.00 Ry     beta= 0.50
     CG style diagonalization
     ethr =  2.82E-07,  avg # of iterations =  4.9

     total cpu time spent up to now is        6.3 secs

     total energy              =    -794.88617106 Ry
     Harris-Foulkes estimate   =    -794.88624139 Ry
     estimated scf accuracy    <       0.00011908 Ry

     iteration #  8     ecut=    60.00 Ry     beta= 0.50
     CG style diagonalization
     ethr =  2.82E-07,  avg # of iterations =  3.7

     total cpu time spent up to now is        6.6 secs

     total energy              =    -794.88617860 Ry
     Harris-Foulkes estimate   =    -794.88618047 Ry
     estimated scf accuracy    <       0.00001349 Ry

     iteration #  9     ecut=    60.00 Ry     beta= 0.50
     CG style diagonalization
     ethr =  8.43E-08,  avg # of iterations =  4.5

     total cpu time spent up to now is        6.8 secs

     total energy              =    -794.88617963 Ry
     Harris-Foulkes estimate   =    -794.88618479 Ry
     estimated scf accuracy    <       0.00000695 Ry

     iteration # 10     ecut=    60.00 Ry     beta= 0.50
     CG style diagonalization
     ethr =  4.35E-08,  avg # of iterations =  4.3

     total cpu time spent up to now is        7.1 secs

     total energy              =    -794.88618498 Ry
     Harris-Foulkes estimate   =    -794.88618455 Ry
     estimated scf accuracy    <       0.00000191 Ry

     iteration # 11     ecut=    60.00 Ry     beta= 0.50
     CG style diagonalization
     ethr =  1.19E-08,  avg # of iterations =  5.3

     total cpu time spent up to now is        7.4 secs

     total energy              =    -794.88619104 Ry
     Harris-Foulkes estimate   =    -794.88618909 Ry
     estimated scf accuracy    <       0.00000857 Ry

     iteration # 12     ecut=    60.00 Ry     beta= 0.50
     CG style diagonalization
     ethr =  1.19E-08,  avg # of iterations =  3.6

     total cpu time spent up to now is        7.6 secs

     total energy              =    -794.88619255 Ry
     Harris-Foulkes estimate   =    -794.88619133 Ry
     estimated scf accuracy    <       0.00001245 Ry

     iteration # 13     ecut=    60.00 Ry     beta= 0.50
     CG style diagonalization
     ethr =  1.19E-08,  avg # of iterations =  3.2

     total cpu time spent up to now is        7.9 secs

     total energy              =    -794.88619547 Ry
     Harris-Foulkes estimate   =    -794.88619270 Ry
     estimated scf accuracy    <       0.00001525 Ry

     iteration # 14     ecut=    60.00 Ry     beta= 0.50
     CG style diagonalization
     ethr =  1.19E-08,  avg # of iterations =  3.7

     total cpu time spent up to now is        8.2 secs

     total energy              =    -794.88620318 Ry
     Harris-Foulkes estimate   =    -794.88619585 Ry
     estimated scf accuracy    <       0.00002270 Ry

     iteration # 15     ecut=    60.00 Ry     beta= 0.50
     CG style diagonalization
     ethr =  1.19E-08,  avg # of iterations =  4.2

     total cpu time spent up to now is        8.4 secs

     total energy              =    -794.88620777 Ry
     Harris-Foulkes estimate   =    -794.88620413 Ry
     estimated scf accuracy    <       0.00004276 Ry

     iteration # 16     ecut=    60.00 Ry     beta= 0.50
     CG style diagonalization
     ethr =  1.19E-08,  avg # of iterations =  3.7

     total cpu time spent up to now is        8.7 secs

     total energy              =    -794.88619533 Ry
     Harris-Foulkes estimate   =    -794.88620830 Ry
     estimated scf accuracy    <       0.00005347 Ry

     iteration # 17     ecut=    60.00 Ry     beta= 0.50
     CG style diagonalization
     ethr =  1.19E-08,  avg # of iterations =  3.5

     total cpu time spent up to now is        9.0 secs

     total energy              =    -794.88620513 Ry
     Harris-Foulkes estimate   =    -794.88619572 Ry
     estimated scf accuracy    <       0.00003267 Ry

     iteration # 18     ecut=    60.00 Ry     beta= 0.50
     CG style diagonalization
     ethr =  1.19E-08,  avg # of iterations =  3.6

     total cpu time spent up to now is        9.2 secs

     total energy              =    -794.88621006 Ry
     Harris-Foulkes estimate   =    -794.88620537 Ry
     estimated scf accuracy    <       0.00004671 Ry

     iteration # 19     ecut=    60.00 Ry     beta= 0.50
     CG style diagonalization
     ethr =  1.19E-08,  avg # of iterations =  3.5

     total cpu time spent up to now is        9.5 secs

     total energy              =    -794.88616477 Ry
     Harris-Foulkes estimate   =    -794.88621028 Ry
     estimated scf accuracy    <       0.00005695 Ry

     iteration # 20     ecut=    60.00 Ry     beta= 0.50
     CG style diagonalization
     ethr =  1.19E-08,  avg # of iterations =  4.2

     total cpu time spent up to now is        9.7 secs

     total energy              =    -794.88618287 Ry
     Harris-Foulkes estimate   =    -794.88618810 Ry
     estimated scf accuracy    <       0.00001293 Ry

     iteration # 21     ecut=    60.00 Ry     beta= 0.50
     CG style diagonalization
     ethr =  1.19E-08,  avg # of iterations =  5.2

     total cpu time spent up to now is       10.0 secs

     total energy              =    -794.88618297 Ry
     Harris-Foulkes estimate   =    -794.88618912 Ry
     estimated scf accuracy    <       0.00000809 Ry

     iteration # 22     ecut=    60.00 Ry     beta= 0.50
     CG style diagonalization
     ethr =  1.19E-08,  avg # of iterations =  4.2

     total cpu time spent up to now is       10.3 secs

     End of self-consistent calculation

          k = 0.0000 0.0000 0.0000 (  5449 PWs)   bands (ev):

   -17.8890  -7.8241  -4.5941  -4.5941  -4.5941   2.6116   2.6116   2.6116

     occupation numbers 
     1.0000   1.0000   1.0000   1.0000   1.0000   1.0000   1.0000   1.0000

          k = 0.0000 0.0000-0.5000 (  5358 PWs)   bands (ev):

   -17.8708  -7.8302  -4.7150  -4.5463  -4.5463   1.2867   2.4993   2.4993

     occupation numbers 
     1.0000   1.0000   1.0000   1.0000   1.0000   1.0000   1.0000   1.0000

          k = 0.0000-0.5000-0.5000 (  5360 PWs)   bands (ev):

   -17.8542  -7.6784  -4.8858  -4.8858  -4.5149   1.8904   1.8904   2.7091

     occupation numbers 
     1.0000   1.0000   1.0000   1.0000   1.0000   1.0000   1.0000   1.0000

          k =-0.5000-0.5000-0.5000 (  5400 PWs)   bands (ev):

   -17.8383  -7.5922  -4.8036  -4.8036  -4.8036   1.5449   1.5449   1.5449

     occupation numbers 
     1.0000   1.0000   1.0000   1.0000   1.0000   1.0000   1.0000   1.0000

     highest occupied level (ev):     2.7091

!    total energy              =    -794.88618453 Ry
     Harris-Foulkes estimate   =    -794.88618453 Ry
     estimated scf accuracy    <          4.9E-09 Ry

     total all-electron energy =    -29807.052189 Ry

     The total energy is the sum of the following terms:

     one-electron contribution =      -3.97509580 Ry
     hartree contribution      =       8.76236181 Ry
     xc contribution           =     -36.98394126 Ry
     ewald contribution        =     -53.30014089 Ry
     one-center paw contrib.   =    -709.38936839 Ry
      -> PAW hartree energy AE =      25.65033117 Ry
      -> PAW hartree energy PS =     -25.54078120 Ry
      -> PAW xc energy AE      =    -383.53244118 Ry
      -> PAW xc energy PS      =      20.51707878 Ry
      -> total E_H with PAW    =       8.87191179 Ry
      -> total E_XC with PAW   =    -399.99930366 Ry

     convergence has been achieved in  22 iterations

     Forces acting on atoms (cartesian axes, Ry/au):

     atom    1 type  1   force =     0.00000000    0.00000000    0.00000000
     atom    2 type  2   force =     0.00000000    0.00000000    0.00000000
     The non-local contrib.  to forces
     atom    1 type  1   force =     0.00000000    0.00000000    0.00000000
     atom    2 type  2   force =     0.00000000    0.00000000    0.00000000
     The ionic contribution  to forces
     atom    1 type  1   force =    -0.00000000   -0.00000000   -0.00000000
     atom    2 type  2   force =     0.00000000    0.00000000    0.00000000
     The local contribution  to forces
     atom    1 type  1   force =     0.00000000    0.00000000    0.00000000
     atom    2 type  2   force =     0.00000000    0.00000000    0.00000000
     The core correction contribution to forces
     atom    1 type  1   force =     0.00000000    0.00000000    0.00000000
     atom    2 type  2   force =    -0.00000000   -0.00000000   -0.00000000
     The Hubbard contrib.    to forces
     atom    1 type  1   force =     0.00000000    0.00000000    0.00000000
     atom    2 type  2   force =     0.00000000    0.00000000    0.00000000
     The SCF correction term to forces
     atom    1 type  1   force =     0.00000000    0.00000000   -0.00000000
     atom    2 type  2   force =     0.00000000    0.00000000    0.00000000

     Total force =     0.000000     Total SCF correction =     0.000000


     Computing stress (Cartesian axis) and pressure

          total   stress  (Ry/bohr**3)                   (kbar)     P=    6.95
   0.00004727   0.00000000   0.00000000          6.95      0.00      0.00
   0.00000000   0.00004727   0.00000000          0.00      6.95      0.00
   0.00000000   0.00000000   0.00004727          0.00      0.00      6.95

     kinetic stress (kbar)   3021.41      0.00      0.00
                                0.00   3021.41      0.00
                                0.00      0.00   3021.41

     local   stress (kbar)  -1091.04     -0.00     -0.00
                               -0.00  -1091.04      0.00
                               -0.00      0.00  -1091.04

     nonloc. stress (kbar)   2494.93      0.00      0.00
                                0.00   2494.93      0.00
                                0.00      0.00   2494.93

     hartree stress (kbar)    627.07      0.00      0.00
                                0.00    627.07     -0.00
                                0.00     -0.00    627.07

     exc-cor stress (kbar)   4362.39      0.00     -0.00
                                0.00   4362.39     -0.00
                               -0.00     -0.00   4362.39

     corecor stress (kbar)  -5593.43     -0.00     -0.00
                               -0.00  -5593.43     -0.00
                               -0.00     -0.00  -5593.43

     ewald   stress (kbar)  -3814.38     -0.00      0.00
                               -0.00  -3814.38      0.00
                                0.00      0.00  -3814.38

     hubbard stress (kbar)      0.00      0.00      0.00
                                0.00      0.00      0.00
                                0.00      0.00      0.00

     london  stress (kbar)      0.00      0.00      0.00
                                0.00      0.00      0.00
                                0.00      0.00      0.00

     DFT-D3  stress (kbar)      0.00      0.00      0.00
                                0.00      0.00      0.00
                                0.00      0.00      0.00

     XDM     stress (kbar)      0.00      0.00      0.00
                                0.00      0.00      0.00
                                0.00      0.00      0.00

     dft-nl  stress (kbar)      0.00      0.00      0.00
                                0.00      0.00      0.00
                                0.00      0.00      0.00

     TS-vdW  stress (kbar)      0.00      0.00      0.00
                                0.00      0.00      0.00
                                0.00      0.00      0.00



     BFGS Geometry Optimization

     number of scf cycles    =   1
     number of bfgs steps    =   0

     enthalpy new            =    -794.8861845250 Ry

     new trust radius        =       0.0061873200 bohr
     new conv_thr            =       0.0000010000 Ry

     new unit-cell volume =    687.62187 a.u.^3 (   101.89505 Ang^3 )
     density =      4.23385 g/cm^3

CELL_PARAMETERS (angstrom)
   4.670725642   0.000000000   0.000000000
   0.000000000   4.670725642   0.000000000
   0.000000000   0.000000000   4.670725642

ATOMIC_POSITIONS (alat)
Cs       0.000000000   0.000000000   0.000000000
I        0.500590932   0.500590932   0.500590932



     Writing output data file CsSnI3.save/
     NEW-OLD atomic charge density approx. for the potential
     extrapolated charge   16.05646, renormalised to   16.00000

     total cpu time spent up to now is       11.2 secs

     Self-consistent Calculation

     iteration #  1     ecut=    60.00 Ry     beta= 0.50
     CG style diagonalization
     ethr =  1.00E-06,  avg # of iterations =  2.3

     total cpu time spent up to now is       11.5 secs

     total energy              =    -794.88620171 Ry
     Harris-Foulkes estimate   =    -794.88915991 Ry
     estimated scf accuracy    <       0.00004597 Ry

     iteration #  2     ecut=    60.00 Ry     beta= 0.50
     CG style diagonalization
     ethr =  2.87E-07,  avg # of iterations =  4.4

     total cpu time spent up to now is       11.7 secs

     total energy              =    -794.88625663 Ry
     Harris-Foulkes estimate   =    -794.88625923 Ry
     estimated scf accuracy    <       0.00000394 Ry

     iteration #  3     ecut=    60.00 Ry     beta= 0.50
     CG style diagonalization
     ethr =  2.46E-08,  avg # of iterations =  7.0

     total cpu time spent up to now is       12.0 secs

     total energy              =    -794.88630515 Ry
     Harris-Foulkes estimate   =    -794.88631099 Ry
     estimated scf accuracy    <       0.00002808 Ry

     iteration #  4     ecut=    60.00 Ry     beta= 0.50
     CG style diagonalization
     ethr =  2.46E-08,  avg # of iterations =  3.4

     total cpu time spent up to now is       12.3 secs

     total energy              =    -794.88629385 Ry
     Harris-Foulkes estimate   =    -794.88630578 Ry
     estimated scf accuracy    <       0.00001786 Ry

     iteration #  5     ecut=    60.00 Ry     beta= 0.50
     CG style diagonalization
     ethr =  2.46E-08,  avg # of iterations =  4.3

     total cpu time spent up to now is       12.6 secs

     total energy              =    -794.88629855 Ry
     Harris-Foulkes estimate   =    -794.88629960 Ry
     estimated scf accuracy    <       0.00000217 Ry

     iteration #  6     ecut=    60.00 Ry     beta= 0.50
     CG style diagonalization
     ethr =  1.36E-08,  avg # of iterations =  4.8

     total cpu time spent up to now is       12.8 secs

     total energy              =    -794.88630008 Ry
     Harris-Foulkes estimate   =    -794.88630092 Ry
     estimated scf accuracy    <       0.00000313 Ry

     iteration #  7     ecut=    60.00 Ry     beta= 0.50
     CG style diagonalization
     ethr =  1.36E-08,  avg # of iterations =  3.2

     total cpu time spent up to now is       13.5 secs

     total energy              =    -794.88629933 Ry
     Harris-Foulkes estimate   =    -794.88630031 Ry
     estimated scf accuracy    <       0.00000161 Ry

     iteration #  8     ecut=    60.00 Ry     beta= 0.50
     CG style diagonalization
     ethr =  1.01E-08,  avg # of iterations =  3.6

     total cpu time spent up to now is       13.8 secs

     End of self-consistent calculation

          k = 0.0000 0.0000 0.0000 (  5449 PWs)   bands (ev):

   -17.9222  -7.8412  -4.6278  -4.6278  -4.6278   2.5881   2.5881   2.5881

     occupation numbers 
     1.0000   1.0000   1.0000   1.0000   1.0000   1.0000   1.0000   1.0000

          k = 0.0000 0.0000-0.4994 (  5358 PWs)   bands (ev):

   -17.9043  -7.8469  -4.7480  -4.5807  -4.5807   1.2704   2.4777   2.4777

     occupation numbers 
     1.0000   1.0000   1.0000   1.0000   1.0000   1.0000   1.0000   1.0000

          k = 0.0000-0.4994-0.4994 (  5360 PWs)   bands (ev):

   -17.8880  -7.6967  -4.9160  -4.9160  -4.5497   1.8696   1.8696   2.6861

     occupation numbers 
     1.0000   1.0000   1.0000   1.0000   1.0000   1.0000   1.0000   1.0000

          k =-0.4994-0.4994-0.4994 (  5400 PWs)   bands (ev):

   -17.8724  -7.6115  -4.8351  -4.8351  -4.8351   1.5288   1.5288   1.5288

     occupation numbers 
     1.0000   1.0000   1.0000   1.0000   1.0000   1.0000   1.0000   1.0000

     highest occupied level (ev):     2.6861

!    total energy              =    -794.88629962 Ry
     Harris-Foulkes estimate   =    -794.88629963 Ry
     estimated scf accuracy    <          9.6E-09 Ry

     total all-electron energy =    -29807.052304 Ry

     The total energy is the sum of the following terms:

     one-electron contribution =      -4.06996585 Ry
     hartree contribution      =       8.79399768 Ry
     xc contribution           =     -36.98358623 Ry
     ewald contribution        =     -53.23722178 Ry
     one-center paw contrib.   =    -709.38952345 Ry
      -> PAW hartree energy AE =      25.65545178 Ry
      -> PAW hartree energy PS =     -25.54592367 Ry
      -> PAW xc energy AE      =    -383.53304337 Ry
      -> PAW xc energy PS      =      20.51770674 Ry
      -> total E_H with PAW    =       8.90352579 Ry
      -> total E_XC with PAW   =    -399.99892286 Ry

     convergence has been achieved in   8 iterations

     Forces acting on atoms (cartesian axes, Ry/au):

     atom    1 type  1   force =     0.00000000    0.00000000   -0.00000000
     atom    2 type  2   force =     0.00000000    0.00000000    0.00000000
     The non-local contrib.  to forces
     atom    1 type  1   force =     0.00000000    0.00000000    0.00000000
     atom    2 type  2   force =     0.00000000    0.00000000   -0.00000000
     The ionic contribution  to forces
     atom    1 type  1   force =     0.00000000    0.00000000    0.00000000
     atom    2 type  2   force =    -0.00000000   -0.00000000   -0.00000000
     The local contribution  to forces
     atom    1 type  1   force =     0.00000000    0.00000000    0.00000000
     atom    2 type  2   force =     0.00000000    0.00000000   -0.00000000
     The core correction contribution to forces
     atom    1 type  1   force =     0.00000000    0.00000000    0.00000000
     atom    2 type  2   force =    -0.00000000   -0.00000000   -0.00000000
     The Hubbard contrib.    to forces
     atom    1 type  1   force =     0.00000000    0.00000000    0.00000000
     atom    2 type  2   force =     0.00000000    0.00000000    0.00000000
     The SCF correction term to forces
     atom    1 type  1   force =    -0.00000000   -0.00000000   -0.00000000
     atom    2 type  2   force =    -0.00000000    0.00000000   -0.00000000

     Total force =     0.000000     Total SCF correction =     0.000000


     Computing stress (Cartesian axis) and pressure

          total   stress  (Ry/bohr**3)                   (kbar)     P=    7.01
   0.00004766   0.00000000   0.00000000          7.01      0.00      0.00
   0.00000000   0.00004766   0.00000000          0.00      7.01      0.00
   0.00000000   0.00000000   0.00004766          0.00      0.00      7.01

     kinetic stress (kbar)   3010.55      0.00      0.00
                                0.00   3010.55      0.00
                                0.00      0.00   3010.55

     local   stress (kbar)  -1093.86      0.00     -0.00
                                0.00  -1093.86      0.00
                               -0.00      0.00  -1093.86

     nonloc. stress (kbar)   2486.31      0.00      0.00
                                0.00   2486.31      0.00
                                0.00      0.00   2486.31

     hartree stress (kbar)    627.11      0.00     -0.00
                                0.00    627.11     -0.00
                               -0.00     -0.00    627.11

     exc-cor stress (kbar)   4346.99      0.00     -0.00
                                0.00   4346.99     -0.00
                               -0.00     -0.00   4346.99

     corecor stress (kbar)  -5573.69      0.00     -0.00
                                0.00  -5573.69     -0.00
                               -0.00     -0.00  -5573.69

     ewald   stress (kbar)  -3796.40     -0.00     -0.00
                               -0.00  -3796.40     -0.00
                               -0.00     -0.00  -3796.40

     hubbard stress (kbar)      0.00      0.00      0.00
                                0.00      0.00      0.00
                                0.00      0.00      0.00

     london  stress (kbar)      0.00      0.00      0.00
                                0.00      0.00      0.00
                                0.00      0.00      0.00

     DFT-D3  stress (kbar)      0.00      0.00      0.00
                                0.00      0.00      0.00
                                0.00      0.00      0.00

     XDM     stress (kbar)      0.00      0.00      0.00
                                0.00      0.00      0.00
                                0.00      0.00      0.00

     dft-nl  stress (kbar)      0.00      0.00      0.00
                                0.00      0.00      0.00
                                0.00      0.00      0.00

     TS-vdW  stress (kbar)      0.00      0.00      0.00
                                0.00      0.00      0.00
                                0.00      0.00      0.00



     number of scf cycles    =   2
     number of bfgs steps    =   1

     enthalpy old            =    -794.8861845250 Ry
     enthalpy new            =    -794.8862996250 Ry

     CASE: enthalpy_new < enthalpy_old


     WARNING: bfgs curvature condition failed, Theta= 0.792
     new trust radius        =       0.0068100727 bohr
     new conv_thr            =       0.0000000100 Ry

     new unit-cell volume =    690.30401 a.u.^3 (   102.29250 Ang^3 )
     density =      4.21740 g/cm^3

CELL_PARAMETERS (angstrom)
   4.676790649   0.000000000   0.000000000
   0.000000000   4.676790649   0.000000000
   0.000000000   0.000000000   4.676790649

ATOMIC_POSITIONS (alat)
Cs       0.000000000   0.000000000   0.000000000
I        0.501240956   0.501240956   0.501240956



     Writing output data file CsSnI3.save/
     NEW-OLD atomic charge density approx. for the potential
     extrapolated charge   16.06201, renormalised to   16.00000

     total cpu time spent up to now is       14.6 secs

     Self-consistent Calculation

     iteration #  1     ecut=    60.00 Ry     beta= 0.50
     CG style diagonalization
     ethr =  1.00E-06,  avg # of iterations =  2.6

     total cpu time spent up to now is       14.8 secs

     total energy              =    -794.88630250 Ry
     Harris-Foulkes estimate   =    -794.88930034 Ry
     estimated scf accuracy    <       0.00006004 Ry

     iteration #  2     ecut=    60.00 Ry     beta= 0.50
     CG style diagonalization
     ethr =  3.75E-07,  avg # of iterations =  4.7

     total cpu time spent up to now is       15.1 secs

     total energy              =    -794.88637593 Ry
     Harris-Foulkes estimate   =    -794.88638088 Ry
     estimated scf accuracy    <       0.00000892 Ry

     iteration #  3     ecut=    60.00 Ry     beta= 0.50
     CG style diagonalization
     ethr =  5.58E-08,  avg # of iterations =  5.5

     total cpu time spent up to now is       15.4 secs

     total energy              =    -794.88641797 Ry
     Harris-Foulkes estimate   =    -794.88642508 Ry
     estimated scf accuracy    <       0.00002339 Ry

     iteration #  4     ecut=    60.00 Ry     beta= 0.50
     CG style diagonalization
     ethr =  5.58E-08,  avg # of iterations =  3.5

     total cpu time spent up to now is       15.6 secs

     total energy              =    -794.88641882 Ry
     Harris-Foulkes estimate   =    -794.88641989 Ry
     estimated scf accuracy    <       0.00001115 Ry

     iteration #  5     ecut=    60.00 Ry     beta= 0.50
     CG style diagonalization
     ethr =  5.58E-08,  avg # of iterations =  3.1

     total cpu time spent up to now is       15.9 secs

     total energy              =    -794.88641930 Ry
     Harris-Foulkes estimate   =    -794.88641928 Ry
     estimated scf accuracy    <       0.00000884 Ry

     iteration #  6     ecut=    60.00 Ry     beta= 0.50
     CG style diagonalization
     ethr =  5.52E-08,  avg # of iterations =  3.0

     total cpu time spent up to now is       16.1 secs

     total energy              =    -794.88641966 Ry
     Harris-Foulkes estimate   =    -794.88641948 Ry
     estimated scf accuracy    <       0.00000843 Ry

     iteration #  7     ecut=    60.00 Ry     beta= 0.50
     CG style diagonalization
     ethr =  5.27E-08,  avg # of iterations =  3.0

     total cpu time spent up to now is       16.4 secs

     total energy              =    -794.88641663 Ry
     Harris-Foulkes estimate   =    -794.88641979 Ry
     estimated scf accuracy    <       0.00000839 Ry

     iteration #  8     ecut=    60.00 Ry     beta= 0.50
     CG style diagonalization
     ethr =  5.24E-08,  avg # of iterations =  3.4

     total cpu time spent up to now is       16.6 secs

     total energy              =    -794.88641629 Ry
     Harris-Foulkes estimate   =    -794.88641746 Ry
     estimated scf accuracy    <       0.00000214 Ry

     iteration #  9     ecut=    60.00 Ry     beta= 0.50
     CG style diagonalization
     ethr =  1.34E-08,  avg # of iterations =  5.3

     total cpu time spent up to now is       16.9 secs

     total energy              =    -794.88641782 Ry
     Harris-Foulkes estimate   =    -794.88641782 Ry
     estimated scf accuracy    <       0.00000040 Ry

     iteration # 10     ecut=    60.00 Ry     beta= 0.50
     CG style diagonalization
     ethr =  2.47E-09,  avg # of iterations =  4.2

     total cpu time spent up to now is       17.2 secs

     total energy              =    -794.88641813 Ry
     Harris-Foulkes estimate   =    -794.88641804 Ry
     estimated scf accuracy    <       0.00000039 Ry

     iteration # 11     ecut=    60.00 Ry     beta= 0.50
     CG style diagonalization
     ethr =  2.42E-09,  avg # of iterations =  3.2

     total cpu time spent up to now is       17.4 secs

     total energy              =    -794.88641811 Ry
     Harris-Foulkes estimate   =    -794.88641817 Ry
     estimated scf accuracy    <       0.00000055 Ry

     iteration # 12     ecut=    60.00 Ry     beta= 0.50
     CG style diagonalization
     ethr =  2.42E-09,  avg # of iterations =  3.2

     total cpu time spent up to now is       17.7 secs

     total energy              =    -794.88641803 Ry
     Harris-Foulkes estimate   =    -794.88641815 Ry
     estimated scf accuracy    <       0.00000052 Ry

     iteration # 13     ecut=    60.00 Ry     beta= 0.50
     CG style diagonalization
     ethr =  2.42E-09,  avg # of iterations =  3.1

     total cpu time spent up to now is       17.9 secs

     total energy              =    -794.88641793 Ry
     Harris-Foulkes estimate   =    -794.88641805 Ry
     estimated scf accuracy    <       0.00000032 Ry

     iteration # 14     ecut=    60.00 Ry     beta= 0.50
     CG style diagonalization
     ethr =  2.02E-09,  avg # of iterations =  3.6

     total cpu time spent up to now is       18.2 secs

     total energy              =    -794.88641782 Ry
     Harris-Foulkes estimate   =    -794.88641799 Ry
     estimated scf accuracy    <       0.00000028 Ry

     iteration # 15     ecut=    60.00 Ry     beta= 0.50
     CG style diagonalization
     ethr =  1.73E-09,  avg # of iterations =  3.9

     total cpu time spent up to now is       18.4 secs

     total energy              =    -794.88641792 Ry
     Harris-Foulkes estimate   =    -794.88641788 Ry
     estimated scf accuracy    <       0.00000001 Ry

     iteration # 16     ecut=    60.00 Ry     beta= 0.50
     CG style diagonalization
     ethr =  6.73E-11,  avg # of iterations =  5.7

     total cpu time spent up to now is       18.7 secs

     End of self-consistent calculation

          k = 0.0000 0.0000 0.0000 (  5449 PWs)   bands (ev):

   -17.9589  -7.8670  -4.6645  -4.6645  -4.6645   2.5572   2.5572   2.5572

     occupation numbers 
     1.0000   1.0000   1.0000   1.0000   1.0000   1.0000   1.0000   1.0000

          k = 0.0000 0.0000-0.4988 (  5358 PWs)   bands (ev):

   -17.9414  -7.8720  -4.7843  -4.6182  -4.6182   1.2487   2.4489   2.4489

     occupation numbers 
     1.0000   1.0000   1.0000   1.0000   1.0000   1.0000   1.0000   1.0000

          k = 0.0000-0.4988-0.4988 (  5360 PWs)   bands (ev):

   -17.9253  -7.7240  -4.9490  -4.9490  -4.5877   1.8422   1.8422   2.6554

     occupation numbers 
     1.0000   1.0000   1.0000   1.0000   1.0000   1.0000   1.0000   1.0000

          k =-0.4988-0.4988-0.4988 (  5400 PWs)   bands (ev):

   -17.9099  -7.6399  -4.8695  -4.8695  -4.8695   1.5069   1.5069   1.5069

     occupation numbers 
     1.0000   1.0000   1.0000   1.0000   1.0000   1.0000   1.0000   1.0000

     highest occupied level (ev):     2.6554

!    total energy              =    -794.88641795 Ry
     Harris-Foulkes estimate   =    -794.88641795 Ry
     estimated scf accuracy    <          3.3E-09 Ry

     total all-electron energy =    -29807.052422 Ry

     The total energy is the sum of the following terms:

     one-electron contribution =      -4.17303571 Ry
     hartree contribution      =       8.82551989 Ry
     xc contribution           =     -36.98147710 Ry
     ewald contribution        =     -53.16818211 Ry
     one-center paw contrib.   =    -709.38924292 Ry
      -> PAW hartree energy AE =      25.64848255 Ry
      -> PAW hartree energy PS =     -25.53896879 Ry
      -> PAW xc energy AE      =    -383.53195602 Ry
      -> PAW xc energy PS      =      20.51673263 Ry
      -> total E_H with PAW    =       8.93503365 Ry
      -> total E_XC with PAW   =    -399.99670049 Ry

     convergence has been achieved in  16 iterations

     Forces acting on atoms (cartesian axes, Ry/au):

     atom    1 type  1   force =     0.00000000    0.00000000    0.00000000
     atom    2 type  2   force =     0.00000000    0.00000000   -0.00000000
     The non-local contrib.  to forces
     atom    1 type  1   force =     0.00000000    0.00000000    0.00000000
     atom    2 type  2   force =     0.00000000    0.00000000    0.00000000
     The ionic contribution  to forces
     atom    1 type  1   force =    -0.00000000   -0.00000000   -0.00000000
     atom    2 type  2   force =     0.00000000    0.00000000    0.00000000
     The local contribution  to forces
     atom    1 type  1   force =     0.00000000    0.00000000    0.00000000
     atom    2 type  2   force =     0.00000000    0.00000000    0.00000000
     The core correction contribution to forces
     atom    1 type  1   force =     0.00000000    0.00000000    0.00000000
     atom    2 type  2   force =    -0.00000000   -0.00000000   -0.00000000
     The Hubbard contrib.    to forces
     atom    1 type  1   force =     0.00000000    0.00000000    0.00000000
     atom    2 type  2   force =     0.00000000    0.00000000    0.00000000
     The SCF correction term to forces
     atom    1 type  1   force =    -0.00000000   -0.00000000    0.00000000
     atom    2 type  2   force =     0.00000000   -0.00000000    0.00000000

     Total force =     0.000000     Total SCF correction =     0.000000


     Computing stress (Cartesian axis) and pressure

          total   stress  (Ry/bohr**3)                   (kbar)     P=    6.24
   0.00004243   0.00000000   0.00000000          6.24      0.00      0.00
   0.00000000   0.00004243   0.00000000          0.00      6.24      0.00
   0.00000000   0.00000000   0.00004243          0.00      0.00      6.24

     kinetic stress (kbar)   2998.21      0.00      0.00
                                0.00   2998.21      0.00
                                0.00      0.00   2998.21

     local   stress (kbar)  -1096.66     -0.00      0.00
                               -0.00  -1096.66     -0.00
                                0.00     -0.00  -1096.66

     nonloc. stress (kbar)   2476.30      0.00      0.00
                                0.00   2476.30      0.00
                                0.00      0.00   2476.30

     hartree stress (kbar)    626.91      0.00     -0.00
                                0.00    626.91     -0.00
                               -0.00     -0.00    626.91

     exc-cor stress (kbar)   4330.19     -0.00      0.00
                               -0.00   4330.19      0.00
                                0.00      0.00   4330.19

     corecor stress (kbar)  -5551.97     -0.00     -0.00
                               -0.00  -5551.97     -0.00
                               -0.00     -0.00  -5551.97

     ewald   stress (kbar)  -3776.75     -0.00      0.00
                               -0.00  -3776.75      0.00
                                0.00      0.00  -3776.75

     hubbard stress (kbar)      0.00      0.00      0.00
                                0.00      0.00      0.00
                                0.00      0.00      0.00

     london  stress (kbar)      0.00      0.00      0.00
                                0.00      0.00      0.00
                                0.00      0.00      0.00

     DFT-D3  stress (kbar)      0.00      0.00      0.00
                                0.00      0.00      0.00
                                0.00      0.00      0.00

     XDM     stress (kbar)      0.00      0.00      0.00
                                0.00      0.00      0.00
                                0.00      0.00      0.00

     dft-nl  stress (kbar)      0.00      0.00      0.00
                                0.00      0.00      0.00
                                0.00      0.00      0.00

     TS-vdW  stress (kbar)      0.00      0.00      0.00
                                0.00      0.00      0.00
                                0.00      0.00      0.00



     number of scf cycles    =   3
     number of bfgs steps    =   2

     enthalpy old            =    -794.8862996250 Ry
     enthalpy new            =    -794.8864179456 Ry

     CASE: enthalpy_new < enthalpy_old

     new trust radius        =       0.0102217391 bohr
     new conv_thr            =       0.0000000100 Ry

     new unit-cell volume =    694.34028 a.u.^3 (   102.89061 Ang^3 )
     density =      4.19288 g/cm^3

CELL_PARAMETERS (angstrom)
   4.685888159   0.000000000   0.000000000
   0.000000000   4.685888159   0.000000000
   0.000000000   0.000000000   4.685888159

ATOMIC_POSITIONS (alat)
Cs       0.000000000   0.000000000   0.000000000
I        0.502215993   0.502215993   0.502215993



     Writing output data file CsSnI3.save/
     NEW-OLD atomic charge density approx. for the potential
     extrapolated charge   16.09278, renormalised to   16.00000

     total cpu time spent up to now is       19.5 secs

     Self-consistent Calculation

     iteration #  1     ecut=    60.00 Ry     beta= 0.50
     CG style diagonalization
     ethr =  1.00E-06,  avg # of iterations =  3.0

     total cpu time spent up to now is       19.7 secs

     total energy              =    -794.88631581 Ry
     Harris-Foulkes estimate   =    -794.89029115 Ry
     estimated scf accuracy    <       0.00013143 Ry

     iteration #  2     ecut=    60.00 Ry     beta= 0.50
     CG style diagonalization
     ethr =  8.21E-07,  avg # of iterations =  4.1

     total cpu time spent up to now is       20.0 secs

     total energy              =    -794.88654026 Ry
     Harris-Foulkes estimate   =    -794.88656321 Ry
     estimated scf accuracy    <       0.00005539 Ry

     iteration #  3     ecut=    60.00 Ry     beta= 0.50
     CG style diagonalization
     ethr =  3.46E-07,  avg # of iterations =  4.8

     total cpu time spent up to now is       20.3 secs

     total energy              =    -794.88657697 Ry
     Harris-Foulkes estimate   =    -794.88658686 Ry
     estimated scf accuracy    <       0.00003710 Ry

     iteration #  4     ecut=    60.00 Ry     beta= 0.50
     CG style diagonalization
     ethr =  2.32E-07,  avg # of iterations =  3.4

     total cpu time spent up to now is       20.5 secs

     total energy              =    -794.88657549 Ry
     Harris-Foulkes estimate   =    -794.88658242 Ry
     estimated scf accuracy    <       0.00002092 Ry

     iteration #  5     ecut=    60.00 Ry     beta= 0.50
     CG style diagonalization
     ethr =  1.31E-07,  avg # of iterations =  3.5

     total cpu time spent up to now is       20.8 secs

     total energy              =    -794.88657536 Ry
     Harris-Foulkes estimate   =    -794.88657871 Ry
     estimated scf accuracy    <       0.00000739 Ry

     iteration #  6     ecut=    60.00 Ry     beta= 0.50
     CG style diagonalization
     ethr =  4.62E-08,  avg # of iterations =  4.5

     total cpu time spent up to now is       21.0 secs

     total energy              =    -794.88657842 Ry
     Harris-Foulkes estimate   =    -794.88657856 Ry
     estimated scf accuracy    <       0.00000063 Ry

     iteration #  7     ecut=    60.00 Ry     beta= 0.50
     CG style diagonalization
     ethr =  3.94E-09,  avg # of iterations =  5.2

     total cpu time spent up to now is       21.3 secs

     total energy              =    -794.88658001 Ry
     Harris-Foulkes estimate   =    -794.88657962 Ry
     estimated scf accuracy    <       0.00000027 Ry

     iteration #  8     ecut=    60.00 Ry     beta= 0.50
     CG style diagonalization
     ethr =  1.70E-09,  avg # of iterations =  4.2

     total cpu time spent up to now is       21.6 secs

     total energy              =    -794.88657943 Ry
     Harris-Foulkes estimate   =    -794.88658036 Ry
     estimated scf accuracy    <       0.00000173 Ry

     iteration #  9     ecut=    60.00 Ry     beta= 0.50
     CG style diagonalization
     ethr =  1.70E-09,  avg # of iterations =  4.8

     total cpu time spent up to now is       21.9 secs

     total energy              =    -794.88657983 Ry
     Harris-Foulkes estimate   =    -794.88657995 Ry
     estimated scf accuracy    <       0.00000036 Ry

     iteration # 10     ecut=    60.00 Ry     beta= 0.50
     CG style diagonalization
     ethr =  1.70E-09,  avg # of iterations =  4.5

     total cpu time spent up to now is       22.1 secs

     total energy              =    -794.88657989 Ry
     Harris-Foulkes estimate   =    -794.88658006 Ry
     estimated scf accuracy    <       0.00000039 Ry

     iteration # 11     ecut=    60.00 Ry     beta= 0.50
     CG style diagonalization
     ethr =  1.70E-09,  avg # of iterations =  3.5

     total cpu time spent up to now is       22.4 secs

     total energy              =    -794.88657986 Ry
     Harris-Foulkes estimate   =    -794.88657993 Ry
     estimated scf accuracy    <       0.00000015 Ry

     iteration # 12     ecut=    60.00 Ry     beta= 0.50
     CG style diagonalization
     ethr =  9.66E-10,  avg # of iterations =  3.3

     total cpu time spent up to now is       22.7 secs

     total energy              =    -794.88657986 Ry
     Harris-Foulkes estimate   =    -794.88657988 Ry
     estimated scf accuracy    <       0.00000004 Ry

     iteration # 13     ecut=    60.00 Ry     beta= 0.50
     CG style diagonalization
     ethr =  2.79E-10,  avg # of iterations =  4.1

     total cpu time spent up to now is       22.9 secs

     End of self-consistent calculation

          k = 0.0000 0.0000 0.0000 (  5449 PWs)   bands (ev):

   -18.0110  -7.9040  -4.7173  -4.7173  -4.7173   2.5121   2.5121   2.5121

     occupation numbers 
     1.0000   1.0000   1.0000   1.0000   1.0000   1.0000   1.0000   1.0000

          k = 0.0000 0.0000-0.4978 (  5358 PWs)   bands (ev):

   -17.9939  -7.9081  -4.8364  -4.6721  -4.6721   1.2170   2.4069   2.4069

     occupation numbers 
     1.0000   1.0000   1.0000   1.0000   1.0000   1.0000   1.0000   1.0000

          k = 0.0000-0.4978-0.4978 (  5360 PWs)   bands (ev):

   -17.9782  -7.7632  -4.9963  -4.9963  -4.6422   1.8023   1.8023   2.6107

     occupation numbers 
     1.0000   1.0000   1.0000   1.0000   1.0000   1.0000   1.0000   1.0000

          k =-0.4978-0.4978-0.4978 (  5400 PWs)   bands (ev):

   -17.9633  -7.6808  -4.9189  -4.9189  -4.9189   1.4750   1.4750   1.4750

     occupation numbers 
     1.0000   1.0000   1.0000   1.0000   1.0000   1.0000   1.0000   1.0000

     highest occupied level (ev):     2.6107

!    total energy              =    -794.88657987 Ry
     Harris-Foulkes estimate   =    -794.88657987 Ry
     estimated scf accuracy    <          7.0E-09 Ry

     total all-electron energy =    -29807.052584 Ry

     The total energy is the sum of the following terms:

     one-electron contribution =      -4.32773447 Ry
     hartree contribution      =       8.87405872 Ry
     xc contribution           =     -36.97898023 Ry
     ewald contribution        =     -53.06495769 Ry
     one-center paw contrib.   =    -709.38896619 Ry
      -> PAW hartree energy AE =      25.64394465 Ry
      -> PAW hartree energy PS =     -25.53445652 Ry
      -> PAW xc energy AE      =    -383.53115352 Ry
      -> PAW xc energy PS      =      20.51606389 Ry
      -> total E_H with PAW    =       8.98354686 Ry
      -> total E_XC with PAW   =    -399.99406987 Ry

     convergence has been achieved in  13 iterations

     Forces acting on atoms (cartesian axes, Ry/au):

     atom    1 type  1   force =     0.00000000   -0.00000000    0.00000000
     atom    2 type  2   force =     0.00000000   -0.00000000    0.00000000
     The non-local contrib.  to forces
     atom    1 type  1   force =     0.00000000    0.00000000    0.00000000
     atom    2 type  2   force =     0.00000000    0.00000000    0.00000000
     The ionic contribution  to forces
     atom    1 type  1   force =     0.00000000    0.00000000    0.00000000
     atom    2 type  2   force =    -0.00000000   -0.00000000   -0.00000000
     The local contribution  to forces
     atom    1 type  1   force =     0.00000000    0.00000000    0.00000000
     atom    2 type  2   force =     0.00000000    0.00000000    0.00000000
     The core correction contribution to forces
     atom    1 type  1   force =     0.00000000    0.00000000    0.00000000
     atom    2 type  2   force =    -0.00000000   -0.00000000   -0.00000000
     The Hubbard contrib.    to forces
     atom    1 type  1   force =     0.00000000    0.00000000    0.00000000
     atom    2 type  2   force =     0.00000000    0.00000000    0.00000000
     The SCF correction term to forces
     atom    1 type  1   force =     0.00000000    0.00000000    0.00000000
     atom    2 type  2   force =     0.00000000    0.00000000   -0.00000000

     Total force =     0.000000     Total SCF correction =     0.000000


     Computing stress (Cartesian axis) and pressure

          total   stress  (Ry/bohr**3)                   (kbar)     P=    5.49
   0.00003733   0.00000000   0.00000000          5.49      0.00      0.00
   0.00000000   0.00003733   0.00000000          0.00      5.49      0.00
   0.00000000   0.00000000   0.00003733          0.00      0.00      5.49

     kinetic stress (kbar)   2980.01      0.00      0.00
                                0.00   2980.01      0.00
                                0.00      0.00   2980.01

     local   stress (kbar)  -1100.88     -0.00     -0.00
                               -0.00  -1100.88      0.00
                               -0.00      0.00  -1100.88

     nonloc. stress (kbar)   2461.67      0.00      0.00
                                0.00   2461.67      0.00
                                0.00      0.00   2461.67

     hartree stress (kbar)    626.70     -0.00      0.00
                               -0.00    626.70     -0.00
                                0.00     -0.00    626.70

     exc-cor stress (kbar)   4305.13     -0.00     -0.00
                               -0.00   4305.13     -0.00
                               -0.00     -0.00   4305.13

     corecor stress (kbar)  -5519.64     -0.00     -0.00
                               -0.00  -5519.64     -0.00
                               -0.00     -0.00  -5519.64

     ewald   stress (kbar)  -3747.50      0.00      0.00
                                0.00  -3747.50      0.00
                                0.00      0.00  -3747.50

     hubbard stress (kbar)      0.00      0.00      0.00
                                0.00      0.00      0.00
                                0.00      0.00      0.00

     london  stress (kbar)      0.00      0.00      0.00
                                0.00      0.00      0.00
                                0.00      0.00      0.00

     DFT-D3  stress (kbar)      0.00      0.00      0.00
                                0.00      0.00      0.00
                                0.00      0.00      0.00

     XDM     stress (kbar)      0.00      0.00      0.00
                                0.00      0.00      0.00
                                0.00      0.00      0.00

     dft-nl  stress (kbar)      0.00      0.00      0.00
                                0.00      0.00      0.00
                                0.00      0.00      0.00

     TS-vdW  stress (kbar)      0.00      0.00      0.00
                                0.00      0.00      0.00
                                0.00      0.00      0.00



     number of scf cycles    =   4
     number of bfgs steps    =   3

     enthalpy old            =    -794.8864179456 Ry
     enthalpy new            =    -794.8865798672 Ry

     CASE: enthalpy_new < enthalpy_old

     new trust radius        =       0.0153475143 bohr
     new conv_thr            =       0.0000000100 Ry

     new unit-cell volume =    700.42415 a.u.^3 (   103.79215 Ang^3 )
     density =      4.15646 g/cm^3

CELL_PARAMETERS (angstrom)
   4.699534423   0.000000000   0.000000000
   0.000000000   4.699534423   0.000000000
   0.000000000   0.000000000   4.699534423

ATOMIC_POSITIONS (alat)
Cs       0.000000000  -0.000000000   0.000000000
I        0.503678549   0.503678549   0.503678549



     Writing output data file CsSnI3.save/
     NEW-OLD atomic charge density approx. for the potential
     extrapolated charge   16.13863, renormalised to   16.00000

     total cpu time spent up to now is       23.7 secs

     Self-consistent Calculation

     iteration #  1     ecut=    60.00 Ry     beta= 0.50
     CG style diagonalization
     ethr =  1.00E-06,  avg # of iterations =  3.3

     total cpu time spent up to now is       24.0 secs

     total energy              =    -794.88620987 Ry
     Harris-Foulkes estimate   =    -794.89098530 Ry
     estimated scf accuracy    <       0.00028678 Ry

     iteration #  2     ecut=    60.00 Ry     beta= 0.50
     CG style diagonalization
     ethr =  1.79E-06,  avg # of iterations =  4.1

     total cpu time spent up to now is       24.2 secs

     total energy              =    -794.88668040 Ry
     Harris-Foulkes estimate   =    -794.88672821 Ry
     estimated scf accuracy    <       0.00011032 Ry

     iteration #  3     ecut=    60.00 Ry     beta= 0.50
     CG style diagonalization
     ethr =  6.90E-07,  avg # of iterations =  4.9

     total cpu time spent up to now is       24.5 secs

     total energy              =    -794.88679419 Ry
     Harris-Foulkes estimate   =    -794.88681124 Ry
     estimated scf accuracy    <       0.00007768 Ry

     iteration #  4     ecut=    60.00 Ry     beta= 0.50
     CG style diagonalization
     ethr =  4.85E-07,  avg # of iterations =  3.5

     total cpu time spent up to now is       24.7 secs

     total energy              =    -794.88677853 Ry
     Harris-Foulkes estimate   =    -794.88680678 Ry
     estimated scf accuracy    <       0.00006231 Ry

     iteration #  5     ecut=    60.00 Ry     beta= 0.50
     CG style diagonalization
     ethr =  3.89E-07,  avg # of iterations =  3.6

     total cpu time spent up to now is       25.0 secs

     total energy              =    -794.88678100 Ry
     Harris-Foulkes estimate   =    -794.88678530 Ry
     estimated scf accuracy    <       0.00001238 Ry

     iteration #  6     ecut=    60.00 Ry     beta= 0.50
     CG style diagonalization
     ethr =  7.74E-08,  avg # of iterations =  4.6

     total cpu time spent up to now is       25.3 secs

     total energy              =    -794.88679209 Ry
     Harris-Foulkes estimate   =    -794.88678855 Ry
     estimated scf accuracy    <       0.00000487 Ry

     iteration #  7     ecut=    60.00 Ry     beta= 0.50
     CG style diagonalization
     ethr =  3.04E-08,  avg # of iterations =  4.8

     total cpu time spent up to now is       25.5 secs

     total energy              =    -794.88681007 Ry
     Harris-Foulkes estimate   =    -794.88679490 Ry
     estimated scf accuracy    <       0.00001394 Ry

     iteration #  8     ecut=    60.00 Ry     beta= 0.50
     CG style diagonalization
     ethr =  3.04E-08,  avg # of iterations =  6.0

     total cpu time spent up to now is       25.8 secs

     total energy              =    -794.88678002 Ry
     Harris-Foulkes estimate   =    -794.88682107 Ry
     estimated scf accuracy    <       0.00006859 Ry

     iteration #  9     ecut=    60.00 Ry     beta= 0.50
     CG style diagonalization
     ethr =  3.04E-08,  avg # of iterations =  5.0

     total cpu time spent up to now is       26.1 secs

     total energy              =    -794.88678651 Ry
     Harris-Foulkes estimate   =    -794.88678761 Ry
     estimated scf accuracy    <       0.00000251 Ry

     iteration # 10     ecut=    60.00 Ry     beta= 0.50
     CG style diagonalization
     ethr =  1.57E-08,  avg # of iterations =  4.6

     total cpu time spent up to now is       26.4 secs

     total energy              =    -794.88678931 Ry
     Harris-Foulkes estimate   =    -794.88678918 Ry
     estimated scf accuracy    <       0.00000058 Ry

     iteration # 11     ecut=    60.00 Ry     beta= 0.50
     CG style diagonalization
     ethr =  3.63E-09,  avg # of iterations =  4.1

     total cpu time spent up to now is       26.6 secs

     total energy              =    -794.88678931 Ry
     Harris-Foulkes estimate   =    -794.88678952 Ry
     estimated scf accuracy    <       0.00000074 Ry

     iteration # 12     ecut=    60.00 Ry     beta= 0.50
     CG style diagonalization
     ethr =  3.63E-09,  avg # of iterations =  3.7

     total cpu time spent up to now is       26.9 secs

     total energy              =    -794.88678957 Ry
     Harris-Foulkes estimate   =    -794.88678941 Ry
     estimated scf accuracy    <       0.00000014 Ry

     iteration # 13     ecut=    60.00 Ry     beta= 0.50
     CG style diagonalization
     ethr =  8.58E-10,  avg # of iterations =  4.9

     total cpu time spent up to now is       27.1 secs

     total energy              =    -794.88678992 Ry
     Harris-Foulkes estimate   =    -794.88678979 Ry
     estimated scf accuracy    <       0.00000055 Ry

     iteration # 14     ecut=    60.00 Ry     beta= 0.50
     CG style diagonalization
     ethr =  8.58E-10,  avg # of iterations =  5.0

     total cpu time spent up to now is       27.4 secs

[...]
                  (  0.0000000  0.0000000 -1.0000000 )
                  (  1.0000000  0.0000000  0.0000000 )


      isym = 43     inv. 120 deg rotation - cart. axis [1,1,-1]  

 cryst.   s(43) = (     0          0          1      )
                  (    -1          0          0      )
                  (     0          1          0      )

 cart.    s(43) = (  0.0000000 -1.0000000  0.0000000 )
                  (  0.0000000  0.0000000  1.0000000 )
                  (  1.0000000  0.0000000  0.0000000 )


      isym = 44     inv. 120 deg rotation - cart. axis [1,-1,1]  

 cryst.   s(44) = (     0          0         -1      )
                  (     1          0          0      )
                  (     0          1          0      )

 cart.    s(44) = (  0.0000000  1.0000000  0.0000000 )
                  (  0.0000000  0.0000000  1.0000000 )
                  ( -1.0000000  0.0000000  0.0000000 )


      isym = 45     inv. 120 deg rotation - cart. axis [1,1,1]   

 cryst.   s(45) = (     0         -1          0      )
                  (     0          0         -1      )
                  (    -1          0          0      )

 cart.    s(45) = (  0.0000000  0.0000000 -1.0000000 )
                  ( -1.0000000  0.0000000  0.0000000 )
                  (  0.0000000 -1.0000000  0.0000000 )


      isym = 46     inv. 120 deg rotation - cart. axis [-1,1,-1] 

 cryst.   s(46) = (     0          1          0      )
                  (     0          0          1      )
                  (    -1          0          0      )

 cart.    s(46) = (  0.0000000  0.0000000 -1.0000000 )
                  (  1.0000000  0.0000000  0.0000000 )
                  (  0.0000000  1.0000000  0.0000000 )


      isym = 47     inv. 120 deg rotation - cart. axis [1,-1,-1] 

 cryst.   s(47) = (     0          1          0      )
                  (     0          0         -1      )
                  (     1          0          0      )

 cart.    s(47) = (  0.0000000  0.0000000  1.0000000 )
                  (  1.0000000  0.0000000  0.0000000 )
                  (  0.0000000 -1.0000000  0.0000000 )


      isym = 48     inv. 120 deg rotation - cart. axis [-1,-1,1] 

 cryst.   s(48) = (     0         -1          0      )
                  (     0          0          1      )
                  (     1          0          0      )

 cart.    s(48) = (  0.0000000  0.0000000  1.0000000 )
                  ( -1.0000000  0.0000000  0.0000000 )
                  (  0.0000000  1.0000000  0.0000000 )


   Cartesian axes

     site n.     atom                  positions (alat units)
         1           Cs  tau(   1) = (   0.0000000  -0.0000000   0.0000000  )
         2           I   tau(   2) = (   0.5113788   0.5113788   0.5113788  )

   Crystallographic axes

     site n.     atom                  positions (cryst. coord.)
         1           Cs  tau(   1) = (  0.0000000 -0.0000000  0.0000000  )
         2           I   tau(   2) = (  0.5000000  0.5000000  0.5000000  )

     number of k points=     4
                       cart. coord. in units 2pi/alat
        k(    1) = (   0.0000000   0.0000000   0.0000000), wk =   0.2500000
        k(    2) = (   0.0000000   0.0000000  -0.4888744), wk =   0.7500000
        k(    3) = (   0.0000000  -0.4888744  -0.4888744), wk =   0.7500000
        k(    4) = (  -0.4888744  -0.4888744  -0.4888744), wk =   0.2500000

                       cryst. coord.
        k(    1) = (   0.0000000   0.0000000   0.0000000), wk =   0.2500000
        k(    2) = (   0.0000000   0.0000000  -0.5000000), wk =   0.7500000
        k(    3) = (   0.0000000  -0.5000000  -0.5000000), wk =   0.7500000
        k(    4) = (  -0.5000000  -0.5000000  -0.5000000), wk =   0.2500000

     Dense  grid:    46297 G-vectors     FFT dimensions: (  45,  45,  45)

     Dynamical RAM for                 wfc:       0.01 MB

     Dynamical RAM for     wfc (w. buffer):       0.07 MB

     Dynamical RAM for           str. fact:       0.03 MB

     Dynamical RAM for           local pot:       0.01 MB

     Dynamical RAM for          nlocal pot:       0.09 MB

     Dynamical RAM for                qrad:      20.93 MB

     Dynamical RAM for          rho,v,vnew:       0.09 MB

     Dynamical RAM for               rhoin:       0.03 MB

     Dynamical RAM for            rho*nmix:       0.24 MB

     Dynamical RAM for           G-vectors:       0.06 MB

     Dynamical RAM for          h,s,v(r/c):       0.00 MB

     Dynamical RAM for          <psi|beta>:       0.01 MB

     Dynamical RAM for      wfcinit/wfcrot:       0.03 MB

     Dynamical RAM for           addusdens:       8.69 MB

     Dynamical RAM for          addusforce:       8.77 MB

     Dynamical RAM for         addusstress:       9.07 MB

     Estimated static dynamical RAM per process >      21.68 MB

     Estimated max dynamical RAM per process >      30.76 MB

     Estimated total dynamical RAM >       1.44 GB

     Initial potential from superposition of free atoms

     starting charge   15.96031, renormalised to   16.00000
     Starting wfcs are    9 randomized atomic wfcs
     Checking if some PAW data can be deallocated... 
       PAW data deallocated on   24 nodes for type:  1
       PAW data deallocated on   24 nodes for type:  2

     total cpu time spent up to now is       54.8 secs

     Self-consistent Calculation

     iteration #  1     ecut=    60.00 Ry     beta= 0.50
     CG style diagonalization
     ethr =  1.00E-06,  avg # of iterations =  9.9

     total cpu time spent up to now is       55.1 secs

     total energy              =    -794.87828209 Ry
     Harris-Foulkes estimate   =    -794.90162775 Ry
     estimated scf accuracy    <       0.04440132 Ry

     iteration #  2     ecut=    60.00 Ry     beta= 0.50
     CG style diagonalization
     ethr =  2.78E-04,  avg # of iterations =  3.4

     total cpu time spent up to now is       55.4 secs

     total energy              =    -794.88535218 Ry
     Harris-Foulkes estimate   =    -794.88510093 Ry
     estimated scf accuracy    <       0.00265868 Ry

     iteration #  3     ecut=    60.00 Ry     beta= 0.50
     CG style diagonalization
     ethr =  1.66E-05,  avg # of iterations =  4.4

     total cpu time spent up to now is       55.7 secs

     total energy              =    -794.88684157 Ry
     Harris-Foulkes estimate   =    -794.88663501 Ry
     estimated scf accuracy    <       0.00049925 Ry

     iteration #  4     ecut=    60.00 Ry     beta= 0.50
     CG style diagonalization
     ethr =  3.12E-06,  avg # of iterations =  5.0

     total cpu time spent up to now is       55.9 secs

     total energy              =    -794.88722493 Ry
     Harris-Foulkes estimate   =    -794.88724748 Ry
     estimated scf accuracy    <       0.00009940 Ry

     iteration #  5     ecut=    60.00 Ry     beta= 0.50
     CG style diagonalization
     ethr =  6.21E-07,  avg # of iterations =  4.8

     total cpu time spent up to now is       56.2 secs

     total energy              =    -794.88728405 Ry
     Harris-Foulkes estimate   =    -794.88729125 Ry
     estimated scf accuracy    <       0.00000998 Ry

     iteration #  6     ecut=    60.00 Ry     beta= 0.50
     CG style diagonalization
     ethr =  6.24E-08,  avg # of iterations =  5.5

     total cpu time spent up to now is       56.5 secs

     total energy              =    -794.88730161 Ry
     Harris-Foulkes estimate   =    -794.88730045 Ry
     estimated scf accuracy    <       0.00000175 Ry

     iteration #  7     ecut=    60.00 Ry     beta= 0.50
     CG style diagonalization
     ethr =  1.10E-08,  avg # of iterations =  6.2

     total cpu time spent up to now is       56.8 secs

     total energy              =    -794.88730211 Ry
     Harris-Foulkes estimate   =    -794.88730602 Ry
     estimated scf accuracy    <       0.00000522 Ry

     iteration #  8     ecut=    60.00 Ry     beta= 0.50
     CG style diagonalization
     ethr =  1.10E-08,  avg # of iterations =  4.7

     total cpu time spent up to now is       57.1 secs

     total energy              =    -794.88730352 Ry
     Harris-Foulkes estimate   =    -794.88730346 Ry
     estimated scf accuracy    <       0.00000009 Ry

     iteration #  9     ecut=    60.00 Ry     beta= 0.50
     CG style diagonalization
     ethr =  5.85E-10,  avg # of iterations =  7.0

     total cpu time spent up to now is       57.4 secs

     total energy              =    -794.88730382 Ry
     Harris-Foulkes estimate   =    -794.88730432 Ry
     estimated scf accuracy    <       0.00000079 Ry

     iteration # 10     ecut=    60.00 Ry     beta= 0.50
     CG style diagonalization
     ethr =  5.85E-10,  avg # of iterations =  5.0

     total cpu time spent up to now is       57.7 secs

     total energy              =    -794.88730395 Ry
     Harris-Foulkes estimate   =    -794.88730396 Ry
     estimated scf accuracy    <       0.00000003 Ry

     iteration # 11     ecut=    60.00 Ry     beta= 0.50
     CG style diagonalization
     ethr =  1.59E-10,  avg # of iterations =  5.7

     total cpu time spent up to now is       58.0 secs

     total energy              =    -794.88730400 Ry
     Harris-Foulkes estimate   =    -794.88730401 Ry
     estimated scf accuracy    <       0.00000002 Ry

     iteration # 12     ecut=    60.00 Ry     beta= 0.50
     CG style diagonalization
     ethr =  1.20E-10,  avg # of iterations =  4.1

     total cpu time spent up to now is       58.2 secs

     total energy              =    -794.88730404 Ry
     Harris-Foulkes estimate   =    -794.88730401 Ry
     estimated scf accuracy    <       0.00000001 Ry

     iteration # 13     ecut=    60.00 Ry     beta= 0.50
     CG style diagonalization
     ethr =  6.80E-11,  avg # of iterations =  4.7

     total cpu time spent up to now is       58.5 secs

     total energy              =    -794.88730400 Ry
     Harris-Foulkes estimate   =    -794.88730405 Ry
     estimated scf accuracy    <       0.00000008 Ry

     iteration # 14     ecut=    60.00 Ry     beta= 0.50
     CG style diagonalization
     ethr =  6.80E-11,  avg # of iterations =  5.0

     total cpu time spent up to now is       58.8 secs

     total energy              =    -794.88730401 Ry
     Harris-Foulkes estimate   =    -794.88730402 Ry
     estimated scf accuracy    <       0.00000002 Ry

     iteration # 15     ecut=    60.00 Ry     beta= 0.50
     CG style diagonalization
     ethr =  6.80E-11,  avg # of iterations =  3.8

     total cpu time spent up to now is       59.0 secs

     End of self-consistent calculation

          k = 0.0000 0.0000 0.0000 (  5743 PWs)   bands (ev):

   -18.4915  -8.2335  -5.2030  -5.2030  -5.2030   2.1120   2.1120   2.1120

     occupation numbers 
     1.0000   1.0000   1.0000   1.0000   1.0000   1.0000   1.0000   1.0000

          k = 0.0000 0.0000-0.4889 (  5750 PWs)   bands (ev):

   -18.4783  -8.2309  -5.3144  -5.1670  -5.1670   0.9354   2.0324   2.0324

     occupation numbers 
     1.0000   1.0000   1.0000   1.0000   1.0000   1.0000   1.0000   1.0000

          k = 0.0000-0.4889-0.4889 (  5824 PWs)   bands (ev):

   -18.4660  -8.1123  -5.4355  -5.4355  -5.1423   1.4502   1.4502   2.2128

     occupation numbers 
     1.0000   1.0000   1.0000   1.0000   1.0000   1.0000   1.0000   1.0000

          k =-0.4889-0.4889-0.4889 (  5832 PWs)   bands (ev):

   -18.4543  -8.0435  -5.3751  -5.3751  -5.3751   1.1897   1.1897   1.1897

     occupation numbers 
     1.0000   1.0000   1.0000   1.0000   1.0000   1.0000   1.0000   1.0000

     highest occupied level (ev):     2.2128

!    total energy              =    -794.88730402 Ry
     Harris-Foulkes estimate   =    -794.88730402 Ry
     estimated scf accuracy    <          2.5E-09 Ry

     total all-electron energy =    -29807.053308 Ry

     The total energy is the sum of the following terms:

     one-electron contribution =      -5.76046112 Ry
     hartree contribution      =       9.33334773 Ry
     xc contribution           =     -36.95869397 Ry
     ewald contribution        =     -52.11414792 Ry
     one-center paw contrib.   =    -709.38734873 Ry
      -> PAW hartree energy AE =      25.61503841 Ry
      -> PAW hartree energy PS =     -25.50559725 Ry
      -> PAW xc energy AE      =    -383.52655408 Ry
      -> PAW xc energy PS      =      20.51191106 Ry
      -> total E_H with PAW    =       9.44278889 Ry
      -> total E_XC with PAW   =    -399.97333700 Ry

     convergence has been achieved in  15 iterations

     Forces acting on atoms (cartesian axes, Ry/au):

     atom    1 type  1   force =     0.00000000    0.00000000    0.00000000
     atom    2 type  2   force =     0.00000000    0.00000000    0.00000000
     The non-local contrib.  to forces
     atom    1 type  1   force =     0.00000000    0.00000000    0.00000000
     atom    2 type  2   force =     0.00000000    0.00000000    0.00000000
     The ionic contribution  to forces
     atom    1 type  1   force =    -0.00000000   -0.00000000   -0.00000000
     atom    2 type  2   force =     0.00000000    0.00000000    0.00000000
     The local contribution  to forces
     atom    1 type  1   force =     0.00000000    0.00000000   -0.00000000
     atom    2 type  2   force =     0.00000000    0.00000000    0.00000000
     The core correction contribution to forces
     atom    1 type  1   force =     0.00000000    0.00000000    0.00000000
     atom    2 type  2   force =    -0.00000000   -0.00000000   -0.00000000
     The Hubbard contrib.    to forces
     atom    1 type  1   force =     0.00000000    0.00000000    0.00000000
     atom    2 type  2   force =     0.00000000    0.00000000    0.00000000
     The SCF correction term to forces
     atom    1 type  1   force =    -0.00000000   -0.00000000   -0.00000000
     atom    2 type  2   force =     0.00000000   -0.00000000   -0.00000000

     Total force =     0.000000     Total SCF correction =     0.000000


     Computing stress (Cartesian axis) and pressure

          total   stress  (Ry/bohr**3)                   (kbar)     P=    0.07
   0.00000045   0.00000000   0.00000000          0.07      0.00      0.00
   0.00000000   0.00000045   0.00000000          0.00      0.07      0.00
   0.00000000   0.00000000   0.00000045          0.00      0.00      0.07

     kinetic stress (kbar)   2817.15      0.00      0.00
                                0.00   2817.15      0.00
                                0.00      0.00   2817.15

     local   stress (kbar)  -1136.13      0.00     -0.00
                                0.00  -1136.13      0.00
                               -0.00      0.00  -1136.13

     nonloc. stress (kbar)   2329.96      0.00      0.00
                                0.00   2329.96      0.00
                                0.00      0.00   2329.96

     hartree stress (kbar)    624.33      0.00      0.00
                                0.00    624.33      0.00
                                0.00      0.00    624.33

     exc-cor stress (kbar)   4078.73     -0.00     -0.00
                               -0.00   4078.73     -0.00
                               -0.00     -0.00   4078.73

     corecor stress (kbar)  -5227.93     -0.00      0.00
                               -0.00  -5227.93     -0.00
                                0.00     -0.00  -5227.93

     ewald   stress (kbar)  -3486.05     -0.00     -0.00
                               -0.00  -3486.05     -0.00
                               -0.00     -0.00  -3486.05

     hubbard stress (kbar)      0.00      0.00      0.00
                                0.00      0.00      0.00
                                0.00      0.00      0.00

     london  stress (kbar)      0.00      0.00      0.00
                                0.00      0.00      0.00
                                0.00      0.00      0.00

     DFT-D3  stress (kbar)      0.00      0.00      0.00
                                0.00      0.00      0.00
                                0.00      0.00      0.00

     XDM     stress (kbar)      0.00      0.00      0.00
                                0.00      0.00      0.00
                                0.00      0.00      0.00

     dft-nl  stress (kbar)      0.00      0.00      0.00
                                0.00      0.00      0.00
                                0.00      0.00      0.00

     TS-vdW  stress (kbar)      0.00      0.00      0.00
                                0.00      0.00      0.00
                                0.00      0.00      0.00



     Writing output data file CsSnI3.save/
 
     init_run     :      0.83s CPU      1.40s WALL (       2 calls)
     electrons    :     46.80s CPU     48.59s WALL (       9 calls)
     update_pot   :      1.77s CPU      1.81s WALL (       7 calls)
     forces       :      0.57s CPU      0.62s WALL (       9 calls)
     stress       :      1.91s CPU      2.00s WALL (       9 calls)

     Called by init_run:
     wfcinit      :      0.06s CPU      0.15s WALL (       2 calls)
     wfcinit:atom :      0.00s CPU      0.00s WALL (       8 calls)
     wfcinit:wfcr :      0.06s CPU      0.15s WALL (       8 calls)
     potinit      :      0.40s CPU      0.48s WALL (       2 calls)
     hinit0       :      0.24s CPU      0.50s WALL (       2 calls)

     Called by electrons:
     c_bands      :      6.93s CPU      7.59s WALL (     182 calls)
     sum_band     :      4.85s CPU      5.02s WALL (     182 calls)
     v_of_rho     :      0.45s CPU      0.49s WALL (     190 calls)
     v_h          :      0.04s CPU      0.04s WALL (     190 calls)
     v_xc         :      0.44s CPU      0.47s WALL (     208 calls)
     newd         :      3.14s CPU      3.26s WALL (     190 calls)
     PAW_pot      :     33.48s CPU     34.27s WALL (     197 calls)
     mix_rho      :      0.15s CPU      0.18s WALL (     182 calls)

     Called by c_bands:
     init_us_2    :      0.13s CPU      0.13s WALL (    1564 calls)
     ccgdiagg     :      5.05s CPU      5.56s WALL (     728 calls)
     wfcrot       :      1.82s CPU      2.02s WALL (     696 calls)

     Called by sum_band:
     sum_band:bec :      0.00s CPU      0.02s WALL (     756 calls)
     addusdens    :      3.45s CPU      3.55s WALL (     182 calls)

     Called by *cgdiagg:
     h_psi        :      4.70s CPU      5.20s WALL (   19742 calls)
     s_psi        :      0.25s CPU      0.28s WALL (   38788 calls)
     cdiaghg      :      0.60s CPU      0.68s WALL (     696 calls)
     cdiaghg:chol :      0.07s CPU      0.09s WALL (     696 calls)
     cdiaghg:inve :      0.04s CPU      0.05s WALL (     696 calls)
     cdiaghg:para :      0.06s CPU      0.06s WALL (    1392 calls)

     Called by h_psi:
     h_psi:pot    :      4.67s CPU      5.14s WALL (   19742 calls)
     h_psi:calbec :      0.35s CPU      0.43s WALL (   19742 calls)
     vloc_psi     :      4.14s CPU      4.46s WALL (   19742 calls)
     add_vuspsi   :      0.12s CPU      0.15s WALL (   19742 calls)
     hs_1psi      :      3.92s CPU      4.35s WALL (   19046 calls)
     s_1psi       :      0.42s CPU      0.53s WALL (   19046 calls)

     General routines
     calbec       :      0.62s CPU      0.74s WALL (   39724 calls)
     fft          :      0.51s CPU      0.66s WALL (    2323 calls)
     ffts         :      0.04s CPU      0.04s WALL (     182 calls)
     fftw         :      4.51s CPU      4.79s WALL (   55068 calls)
 
     Parallel routines
     fft_scatt_xy :      0.15s CPU      0.26s WALL (   57573 calls)
     fft_scatt_yz :      4.00s CPU      3.84s WALL (   57573 calls)

     PAW routines
     PAW_pot      :     33.48s CPU     34.27s WALL (     197 calls)
     PAW_symme    :      1.16s CPU      1.17s WALL (     379 calls)
 
     PWSCF        :     56.06s CPU     59.38s WALL

 
   This run was terminated on:  19:23:36  12Jan2021            

=------------------------------------------------------------------------------=
   JOB DONE.
=------------------------------------------------------------------------------=
